VARIABLES = "X", "Y", "hGr_x", "hGr_y"
ZONE I= 49, J= 149, DATAPACKING=POINT
-0.00243344 0.00315472 0.0382218 0.0542417
-0.00738272 0.00316244 0.00578159 0.0540966
-0.0124575 0.00317039 -0.0568282 0.0540368
-0.0176607 0.00317854 -0.0776558 0.0537309
-0.0229951 0.00318692 -0.091889 0.0533915
-0.0284636 0.00319552 -0.101233 0.0530354
-0.0340692 0.00320435 -0.10593 0.0526655
-0.0398149 0.00321341 -0.106422 0.0522823
-0.0457038 0.00322271 -0.103359 0.0518866
-0.0517391 0.00323225 -0.0975132 0.0514793
-0.0579239 0.00324204 -0.0896901 0.0510621
-0.0642617 0.00325209 -0.0806482 0.0506371
-0.0707556 0.00326239 -0.071045 0.0502068
-0.0774091 0.00327296 -0.0614046 0.049774
-0.0842256 0.00328379 -0.052109 0.0493416
-0.0912088 0.0032949 -0.0434065 0.0489124
-0.0983623 0.0033063 -0.0354311 0.0484889
-0.10569 0.00331798 -0.0282285 0.0480737
-0.113195 0.00332995 -0.0217821 0.0476688
-0.120881 0.00334222 -0.0160357 0.0472762
-0.128753 0.0033548 -0.0109122 0.0468975
-0.136814 0.00336769 -0.00632611 0.0465338
-0.145068 0.0033809 -0.00219339 0.0461863
-0.15352 0.00339443 0.00156398 0.0458557
-0.162174 0.00340829 0.00501529 0.0455424
-0.171034 0.0034225 0.00821978 0.0452465
-0.180103 0.00343704 0.011227 0.0449675
-0.189388 0.00345194 0.0140779 0.0447035
-0.198891 0.0034672 0.016807 0.0444512
-0.208619 0.00348283 0.0194427 0.0442033
-0.218574 0.00349883 0.0220054 0.0439464
-0.228763 0.00351521 0.024503 0.0436541
-0.239189 0.00353198 0.0269418 0.0432747
-0.249857 0.00354914 0.0294892 0.0427
-0.260774 0.00356671 0.0335538 0.0416957
-0.271942 0.0035847 0.0478101 0.0397401
-0.283368 0.0036031 0.118758 0.0357006
-0.295057 0.00362194 0.465716 0.0274392
-0.307013 0.00364121 1.72606 0.0134901
-0.319242 0.00366093 3.08897 0.00325551
-0.331749 0.0036811 2.2693 -0.00238997
-0.34454 0.00370174 0.607352 -0.00121591
-0.357619 0.00372286 0.0800824 -0.000186273
-0.370992 0.00374445 0.00846628 -2.03185e-05
-0.384665 0.00376654 0.00083637 -2.02499e-06
-0.398643 0.00378914 7.94027e-05 -1.91822e-07
-0.41293 0.00381225 7.33996e-06 -1.7568e-08
-0.427533 0.00383588 6.65841e-07 -1.56949e-09
-0.442457 0.00386005 8.07705e-08 -2.0176e-10
-0.00239145 0.00948519 0.0382792 0.0409719
-0.00734078 0.00950842 0.00610741 0.0411624
-0.0124157 0.00953231 -0.0564199 0.0414754
-0.0176189 0.00955685 -0.0772432 0.0413628
-0.0229534 0.00958204 -0.0914968 0.0411858
-0.028422 0.0096079 -0.100868 0.0409684
-0.0340276 0.00963445 -0.105591 0.0407156
-0.0397735 0.0096617 -0.106102 0.0404321
-0.0456625 0.00968966 -0.103053 0.0401228
-0.0516979 0.00971835 -0.0972169 0.0397932
-0.0578829 0.00974779 -0.0893989 0.0394485
-0.0642207 0.00977799 -0.0803597 0.0390941
-0.0707147 0.00980896 -0.0707585 0.0387344
-0.0773684 0.00984073 -0.0611209 0.0383737
-0.0841851 0.00987332 -0.0518298 0.0380153
-0.0911684 0.00990673 -0.0431342 0.0376618
-0.0983219 0.00994098 -0.0351683 0.0373154
-0.105649 0.0099761 -0.0279781 0.0369775
-0.113154 0.0100121 -0.0215467 0.0366491
-0.120841 0.010049 -0.0158176 0.0363311
-0.128713 0.0100868 -0.010713 0.0360235
-0.136774 0.0101256 -0.00614742 0.0357265
-0.145029 0.0101653 -0.00203609 0.0354394
-0.153481 0.010206 0.00169941 0.0351617
-0.162135 0.0102477 0.00512887 0.0348917
-0.170995 0.0102904 0.00831218 0.0346275
-0.180065 0.0103341 0.0112998 0.0343656
-0.189349 0.0103789 0.0141344 0.0341011
-0.198853 0.0104248 0.0168532 0.0338259
-0.20858 0.0104718 0.0194897 0.033527
-0.218536 0.0105199 0.0220736 0.0331833
-0.228724 0.0105691 0.0246316 0.0327589
-0.239151 0.0106196 0.0272087 0.03219
-0.24982 0.0106712 0.0300559 0.0313548
-0.260736 0.010724 0.034759 0.0300015
-0.271905 0.0107781 0.0503214 0.0275846
-0.283331 0.0108334 0.123595 0.022931
-0.29502 0.01089 0.472991 0.0138474
-0.306976 0.010948 1.73244 -0.00051637
-0.319205 0.0110073 3.09509 -0.00498316
-0.331713 0.0110679 2.27519 -0.00677723
-0.344503 0.01113 0.609793 -0.00274013
-0.357583 0.0111935 0.0804756 -0.000401369
-0.370957 0.0112584 0.00850458 -4.33541e-05
-0.38463 0.0113249 0.00083987 -4.31386e-06
-0.398608 0.0113928 7.97129e-05 -4.0965e-07
-0.412896 0.0114623 7.3669e-06 -3.77086e-08
-0.427499 0.0115333 6.68145e-07 -3.39149e-09
-0.442422 0.011606 8.10346e-08 -4.35166e-10
-0.00230942 0.0158577 0.0380622 -0.00218522
-0.00725886 0.0158966 0.00588563 -0.00140667
-0.0123339 0.0159365 -0.0564897 -0.000385332
-0.0175373 0.0159775 -0.0773046 -4.57227e-05
-0.0228719 0.0160197 -0.0915576 0.000183474
-0.0283407 0.0160629 -0.100932 0.000334033
-0.0339466 0.0161073 -0.105662 0.000414614
-0.0396926 0.0161529 -0.106183 0.000436167
-0.0455819 0.0161996 -0.103144 0.000411371
-0.0516175 0.0162476 -0.0973176 0.000353344
-0.0578027 0.0162968 -0.0895079 0.000274265
-0.0641408 0.0163473 -0.0804751 0.000184528
-0.0706351 0.0163991 -0.0708783 9.22851e-05
-0.077289 0.0164522 -0.0612432 3.34443e-06
-0.084106 0.0165067 -0.0519531 -7.8644e-05
-0.0910895 0.0165626 -0.043257 -0.000151987
-0.0982434 0.0166198 -0.0352897 -0.000216396
-0.105571 0.0166785 -0.0280973 -0.000272694
-0.113077 0.0167387 -0.0216629 -0.000322525
-0.120763 0.0168004 -0.0159301 -0.000367887
-0.128636 0.0168637 -0.0108212 -0.000411229
-0.136697 0.0169285 -0.00625028 -0.000455169
-0.144952 0.0169949 -0.00213251 -0.000502593
-0.153405 0.0170629 0.00161103 -0.000556719
-0.162059 0.0171326 0.00505071 -0.000621362
-0.170919 0.017204 0.00824718 -0.000700987
-0.179989 0.0172771 0.0112522 -0.000801243
-0.189274 0.017352 0.0141099 -0.00092951
-0.198778 0.0174288 0.01686 -0.00109562
-0.208506 0.0175073 0.0195396 -0.00131325
-0.218462 0.0175877 0.022184 -0.00160151
-0.228651 0.0176701 0.024828 -0.00198807
-0.239077 0.0177544 0.0275318 -0.00251451
-0.249747 0.0178407 0.0305736 -0.00325009
-0.260663 0.017929 0.0355835 -0.00432603
-0.271832 0.0180194 0.0515869 -0.00602586
-0.283259 0.018112 0.125106 -0.00901692
-0.294948 0.0182066 0.472567 -0.0149075
-0.306905 0.0183035 1.72552 -0.0250857
-0.319135 0.0184027 3.09012 -0.0221147
-0.331642 0.0185041 2.27833 -0.0157949
-0.344434 0.0186078 0.612674 -0.00525237
-0.357514 0.018714 0.0809613 -0.000728571
-0.370888 0.0188226 0.00855516 -7.71811e-05
-0.384561 0.0189336 0.000844712 -7.58594e-06
-0.39854 0.0190472 8.01565e-05 -7.13958e-07
-0.412828 0.0191634 7.40634e-06 -6.52661e-08
-0.427432 0.0192822 6.71574e-07 -5.83645e-09
-0.442357 0.0194037 8.14318e-08 -7.35062e-10
-0.00218649 0.0222722 0.0377798 -0.00613683
-0.00713611 0.0223268 0.00564684 -0.00511717
-0.0122114 0.0223829 -0.05655 -0.00368693
-0.017415 0.0224405 -0.0773466 -0.00320397
-0.0227499 0.0224997 -0.0915948 -0.00287484
-0.028219 0.0225605 -0.100971 -0.00265462
-0.0338252 0.0226228 -0.105708 -0.00253129
-0.0395716 0.0226868 -0.10624 -0.0024896
-0.0454612 0.0227525 -0.103213 -0.00251173
-0.0514972 0.0228199 -0.0973979 -0.00257926
-0.0576828 0.022889 -0.0895982 -0.00267496
-0.0640212 0.02296 -0.0805729 -0.00278395
-0.0705159 0.0230327 -0.0709806 -0.00289471
-0.0771702 0.0231073 -0.0613473 -0.00299908
-0.0839876 0.0231839 -0.0520563 -0.00309194
-0.0909716 0.0232623 -0.0433573 -0.00317096
-0.0981258 0.0233428 -0.0353854 -0.00323584
-0.105454 0.0234253 -0.0281868 -0.00328787
-0.11296 0.0235098 -0.0217453 -0.00332926
-0.120647 0.0235965 -0.0160043 -0.00336278
-0.12852 0.0236853 -0.0108863 -0.00339159
-0.136582 0.0237763 -0.00630527 -0.00341897
-0.144837 0.0238696 -0.00217613 -0.00344835
-0.15329 0.0239652 0.00158035 -0.00348326
-0.161945 0.0240631 0.005035 -0.00352761
-0.170805 0.0241634 0.00824907 -0.00358556
-0.179876 0.0242661 0.0112752 -0.00366202
-0.189162 0.0243713 0.0141586 -0.00376293
-0.198666 0.0244791 0.0169409 -0.00389567
-0.208394 0.0245894 0.0196613 -0.00407014
-0.218351 0.0247024 0.0223586 -0.0042994
-0.22854 0.0248181 0.025073 -0.00460194
-0.238968 0.0249365 0.0278738 -0.00500509
-0.249637 0.0250577 0.0310555 -0.00555577
-0.260555 0.0251818 0.0362681 -0.00635005
-0.271724 0.0253088 0.0524987 -0.00762445
-0.283152 0.0254387 0.125841 -0.0100735
-0.294841 0.0255717 0.470837 -0.0160447
-0.306799 0.0257078 1.71746 -0.0302862
-0.319029 0.0258471 3.08527 -0.0339154
-0.331537 0.0259896 2.2822 -0.025588
-0.344329 0.0261353 0.615865 -0.00795225
-0.35741 0.0262844 0.0814996 -0.00108101
-0.370785 0.0264369 0.0086129 -0.000113661
-0.384459 0.0265929 0.000850374 -1.11122e-05
-0.398438 0.0267525 8.06856e-05 -1.04161e-06
-0.412728 0.0269156 7.4542e-06 -9.48788e-08
-0.427333 0.0270825 6.75798e-07 -8.45841e-09
-0.442259 0.0272532 8.19279e-08 -1.05214e-09
-0.00202176 0.0287285 0.0374748 -0.00783188
-0.00697167 0.028799 0.00539045 -0.00658195
-0.0120472 0.0288714 -0.056611 -0.00475258
-0.0172512 0.0289457 -0.0773818 -0.00413538
-0.0225866 0.0290221 -0.0916222 -0.00371634
-0.028056 0.0291005 -0.101 -0.00343783
-0.0336627 0.0291809 -0.105746 -0.00328438
-0.0394095 0.0292635 -0.106292 -0.00323648
-0.0452996 0.0293482 -0.103281 -0.00327094
-0.0513361 0.0294352 -0.0974825 -0.00336381
-0.0575222 0.0295244 -0.0896971 -0.00349251
-0.0638611 0.0296159 -0.0806832 -0.00363759
-0.0703563 0.0297097 -0.0710986 -0.00378379
-0.0770112 0.029806 -0.0614693 -0.00392028
-0.0838291 0.0299047 -0.0521792 -0.00404023
-0.0908137 0.030006 -0.0434782 -0.00414038
-0.0979685 0.0301098 -0.0355019 -0.0042202
-0.105297 0.0302162 -0.0282973 -0.00428114
-0.112804 0.0303253 -0.0218483 -0.0043257
-0.120492 0.0304371 -0.0160988 -0.00435717
-0.128365 0.0305517 -0.0109713 -0.00437907
-0.136428 0.0306691 -0.00637989 -0.00439509
-0.144684 0.0307894 -0.00223941 -0.0044087
-0.153137 0.0309127 0.00152956 -0.00442335
-0.161793 0.0310391 0.00499805 -0.00444246
-0.170654 0.0311684 0.00822763 -0.0044693
-0.179725 0.031301 0.0112714 -0.00450736
-0.189011 0.0314367 0.0141753 -0.00456048
-0.198517 0.0315757 0.0169818 -0.00463306
-0.208246 0.0317181 0.0197316 -0.00473084
-0.218203 0.0318638 0.0224653 -0.00486127
-0.228393 0.0320131 0.0252267 -0.00503503
-0.238821 0.0321658 0.028091 -0.00526876
-0.249492 0.0323222 0.0313621 -0.00559381
-0.26041 0.0324823 0.0366937 -0.00608396
-0.27158 0.0326461 0.0530042 -0.00695779
-0.283008 0.0328138 0.125956 -0.00902135
-0.294699 0.0329854 0.468478 -0.0155968
-0.306657 0.0331609 1.70953 -0.0351362
-0.318888 0.0333406 3.0812 -0.0467507
-0.331397 0.0335244 2.28653 -0.0360252
-0.34419 0.0337124 0.619127 -0.010787
-0.357271 0.0339047 0.0820538 -0.00145214
-0.370647 0.0341015 0.00867335 -0.000152189
-0.384323 0.0343027 0.000856392 -1.48453e-05
-0.398303 0.0345086 8.1256e-05 -1.389e-06
-0.412594 0.0347191 7.50646e-06 -1.26334e-07
-0.4272 0.0349344 6.80463e-07 -1.12465e-08
-0.442128 0.0351546 8.2482e-08 -1.38638e-09
-0.00181435 0.0352266 0.0371336 -0.00940351
-0.00676466 0.035313 0.00510059 -0.00791468
-0.0118407 0.0354018 -0.0566854 -0.00568375
-0.0170451 0.035493 -0.077424 -0.00492826
-0.022381 0.0355867 -0.0916535 -0.00441503
-0.027851 0.0356828 -0.101032 -0.00407421
-0.0334582 0.0357815 -0.105788 -0.00388721
-0.0392056 0.0358828 -0.10635 -0.00383036
-0.0450963 0.0359867 -0.103359 -0.00387523
-0.0511334 0.0360933 -0.0975807 -0.00399217
-0.0573201 0.0362027 -0.0898138 -0.00415318
-0.0636597 0.036315 -0.080815 -0.00433401
-0.0701556 0.0364301 -0.0712415 -0.00451548
-0.0768111 0.0365482 -0.0616191 -0.0046838
-0.0836298 0.0366693 -0.052332 -0.00483033
-0.0906151 0.0367934 -0.0436305 -0.0049507
-0.0977706 0.0369208 -0.0356511 -0.00504397
-0.1051 0.0370513 -0.0284413 -0.00511152
-0.112607 0.0371851 -0.0219856 -0.00515612
-0.120296 0.0373222 -0.0162283 -0.00518141
-0.12817 0.0374627 -0.0110921 -0.0051912
-0.136234 0.0376068 -0.00649137 -0.00518932
-0.144491 0.0377544 -0.00234106 -0.00517925
-0.152945 0.0379056 0.00143829 -0.00516416
-0.161601 0.0380605 0.0049177 -0.00514691
-0.170463 0.0382192 0.00815881 -0.00512989
-0.179535 0.0383817 0.0112149 -0.0051152
-0.188822 0.0385482 0.0141321 -0.00510485
-0.198328 0.0387187 0.0169533 -0.00510079
-0.208058 0.0388933 0.01972 -0.0051056
-0.218016 0.039072 0.0224739 -0.00512272
-0.228208 0.0392551 0.0252611 -0.00515757
-0.238637 0.0394424 0.0281604 -0.00522004
-0.249308 0.0396342 0.0314801 -0.00533181
-0.260227 0.0398305 0.0368667 -0.00555418
-0.271399 0.0400315 0.0531565 -0.00610857
-0.282827 0.0402371 0.125613 -0.00796398
-0.294519 0.0404475 0.465799 -0.0155055
-0.306478 0.0406629 1.70194 -0.0407889
-0.318711 0.0408832 3.07775 -0.0602687
-0.331221 0.0411086 2.29108 -0.0466656
-0.344015 0.0413392 0.622401 -0.0136882
-0.357097 0.0415751 0.0826134 -0.00183426
-0.370474 0.0418164 0.0087349 -0.000192002
-0.384151 0.0420632 0.000862574 -1.87141e-05
-0.398133 0.0423156 8.18469e-05 -1.75001e-06
-0.412425 0.0425738 7.56104e-06 -1.5909e-07
-0.427033 0.0428378 6.85374e-07 -1.41596e-08
-0.441963 0.0431079 8.30694e-08 -1.73444e-09
-0.00156336 0.0417662 0.0367491 -0.0109688
-0.00651419 0.0418688 0.00477014 -0.00923507
-0.0115908 0.0419741 -0.0567777 -0.00660103
-0.0167958 0.0420823 -0.0774784 -0.00570406
-0.0221323 0.0421934 -0.0916939 -0.00509289
-0.027603 0.0423074 -0.101072 -0.0046859
-0.0332109 0.0424245 -0.105839 -0.00446159
-0.038959 0.0425446 -0.106419 -0.00439229
-0.0448504 0.0426678 -0.103451 -0.00444452
-0.0508883 0.0427943 -0.0976959 -0.00458297
-0.0570758 0.0429241 -0.0899511 -0.00477413
-0.0634162 0.0430572 -0.0809711 -0.00498885
-0.0699129 0.0431937 -0.0714121 -0.00520399
-0.0765693 0.0433338 -0.0617995 -0.00540264
-0.0833888 0.0434774 -0.0525177 -0.00557416
-0.090375 0.0436246 -0.0438178 -0.00571297
-0.0975314 0.0437756 -0.0358368 -0.00581751
-0.104862 0.0439304 -0.0286232 -0.00588905
-0.11237 0.0440891 -0.022162 -0.00593055
-0.12006 0.0442517 -0.0163983 -0.00594593
-0.127935 0.0444184 -0.0112549 -0.00593924
-0.135999 0.0445892 -0.00664672 -0.00591445
-0.144257 0.0447643 -0.00248882 -0.00587505
-0.152712 0.0449436 0.0012981 -0.00582403
-0.161369 0.0451273 0.00478495 -0.00576379
-0.170233 0.0453155 0.00803322 -0.00569614
-0.179306 0.0455083 0.0110961 -0.00562215
-0.188594 0.0457057 0.0140199 -0.0055427
-0.198101 0.0459079 0.0168475 -0.0054583
-0.207832 0.046115 0.0196208 -0.0053697
-0.217791 0.046327 0.0223826 -0.00527846
-0.227984 0.046544 0.0251802 -0.00518743
-0.238414 0.0467662 0.028095 -0.00510347
-0.249086 0.0469937 0.0314364 -0.00504375
-0.260007 0.0472265 0.0368369 -0.00506506
-0.271179 0.0474648 0.053047 -0.00540764
-0.282609 0.0477087 0.12497 -0.0072346
-0.294302 0.0479582 0.462971 -0.0160099
-0.306263 0.0482136 1.69461 -0.0471774
-0.318496 0.0484749 3.07466 -0.0740705
-0.331008 0.0487422 2.29576 -0.0573351
-0.343803 0.0490156 0.6257 -0.0166271
-0.356887 0.0492954 0.08318 -0.0022236
-0.370266 0.0495815 0.00879747 -0.000232674
-0.383944 0.0498742 0.000868883 -2.26764e-05
-0.397927 0.0501736 8.24527e-05 -2.12056e-06
-0.412221 0.0504798 7.61728e-06 -1.92814e-07
-0.426831 0.0507929 6.90456e-07 -1.71704e-08
-0.441764 0.0511132 8.36796e-08 -2.09676e-09
-0.00126787 0.0483474 0.036318 -0.0125272
-0.00621937 0.0484661 0.00439551 -0.0105457
-0.0112966 0.0485881 -0.0568906 -0.00750798
-0.0165025 0.0487134 -0.0775483 -0.00646711
-0.0218397 0.0488421 -0.0917473 -0.00575505
-0.0273112 0.0489741 -0.101124 -0.00527867
-0.0329199 0.0491096 -0.105902 -0.00501381
-0.0386689 0.0492487 -0.106502 -0.00492893
-0.0445612 0.0493915 -0.103559 -0.00498558
-0.0506 0.0495379 -0.0978307 -0.00514295
-0.0567884 0.0496882 -0.0901116 -0.00536202
-0.0631298 0.0498423 -0.0811538 -0.00560874
-0.0696275 0.0500004 -0.0716124 -0.0058559
-0.0762849 0.0501626 -0.0620124 -0.00608348
-0.0831054 0.0503289 -0.0527384 -0.0062786
-0.0900926 0.0504994 -0.0440422 -0.00643439
-0.0972501 0.0506743 -0.0360616 -0.00654863
-0.104582 0.0508535 -0.0288459 -0.0066224
-0.112091 0.0510373 -0.0223809 -0.0066588
-0.119782 0.0512256 -0.0166123 -0.00666198
-0.127658 0.0514186 -0.0114636 -0.00663629
-0.135723 0.0516164 -0.00684995 -0.00658592
-0.143982 0.0518191 -0.00268683 -0.00651443
-0.152439 0.0520268 0.00110488 -0.00642489
-0.161097 0.0522395 0.00459589 -0.00631945
-0.169961 0.0524574 0.00784744 -0.00619972
-0.179036 0.0526806 0.0109127 -0.00606635
-0.188325 0.0529093 0.0138378 -0.00591977
-0.197834 0.0531434 0.0166658 -0.00576014
-0.207566 0.0533831 0.0194392 -0.00558779
-0.217527 0.0536286 0.0222013 -0.00540403
-0.22772 0.0538799 0.0250009 -0.00521144
-0.238152 0.0541372 0.0279209 -0.00501632
-0.248826 0.0544006 0.0312693 -0.00483448
-0.259747 0.0546702 0.036661 -0.00472316
-0.270921 0.0549461 0.0527619 -0.00495137
-0.282353 0.0552285 0.124147 -0.00689177
-0.294047 0.0555174 0.460068 -0.0170683
-0.306009 0.0558131 1.68736 -0.054099
-0.318244 0.0561156 3.0717 -0.087941
-0.330757 0.0564251 2.30054 -0.0679794
-0.343554 0.0567418 0.629064 -0.0195938
-0.35664 0.0570657 0.0837599 -0.00261884
-0.37002 0.057397 0.00886161 -0.000274047
-0.3837 0.0577359 0.000875363 -2.6714e-05
-0.397685 0.0580825 8.30762e-05 -2.4988e-06
-0.411981 0.0584371 7.67532e-06 -2.27321e-07
-0.426594 0.0587996 6.95721e-07 -2.02666e-08
-0.441529 0.0591705 8.43147e-08 -2.47463e-09
-0.000926992 0.0549698 0.0358393 -0.0140737
-0.0058793 0.0551049 0.00397512 -0.0118434
-0.0109574 0.0552437 -0.057026 -0.00840227
-0.0161641 0.0553862 -0.0776364 -0.00721555
-0.0215023 0.0555326 -0.0918165 -0.00640013
-0.0269747 0.0556828 -0.101191 -0.00585163
-0.0325844 0.0558369 -0.10598 -0.00554342
-0.0383344 0.0559951 -0.106602 -0.00544022
-0.0442277 0.0561575 -0.103686 -0.00549871
-0.0502676 0.0563241 -0.0979877 -0.00567265
-0.0564571 0.056495 -0.0902973 -0.00591772
-0.0627996 0.0566703 -0.0813649 -0.00619487
-0.0692984 0.0568502 -0.0718441 -0.0064727
-0.075957 0.0570347 -0.0622595 -0.00672811
-0.0827787 0.0572238 -0.0529958 -0.00694587
-0.0897671 0.0574178 -0.0443055 -0.00711777
-0.0969258 0.0576167 -0.0363272 -0.00724089
-0.104259 0.0578205 -0.0291111 -0.00731607
-0.111769 0.0580295 -0.0226441 -0.00734651
-0.119461 0.0582437 -0.0168723 -0.00733667
-0.127339 0.0584633 -0.0117201 -0.00729121
-0.135405 0.0586883 -0.00710296 -0.00721467
-0.143666 0.0589188 -0.00293675 -0.00711089
-0.152124 0.059155 0.000857365 -0.00698314
-0.160783 0.059397 0.0043499 -0.00683372
-0.169649 0.0596448 0.00760189 -0.00666435
-0.178725 0.0598987 0.0106664 -0.0064759
-0.188016 0.0601587 0.0135897 -0.006269
-0.197526 0.060425 0.0164151 -0.00604424
-0.207259 0.0606977 0.0191854 -0.0058026
-0.217221 0.0609769 0.021945 -0.00554625
-0.227417 0.0612628 0.0247438 -0.00527873
-0.237849 0.0615554 0.0276654 -0.00500691
-0.248525 0.0618549 0.0310147 -0.00474659
-0.259448 0.0621615 0.0363872 -0.00455791
-0.270624 0.0624754 0.0523667 -0.00474425
-0.282057 0.0627965 0.123221 -0.00689334
-0.293753 0.0631251 0.457105 -0.0185564
-0.305717 0.0634614 1.68002 -0.0613603
-0.317954 0.0638055 3.06867 -0.101781
-0.330469 0.0641575 2.30543 -0.0785945
-0.343267 0.0645176 0.63254 -0.0225903
-0.356355 0.064886 0.0843613 -0.00302005
-0.369737 0.0652628 0.00892814 -0.000316121
-0.383419 0.0656483 0.000882085 -3.08242e-05
-0.397406 0.0660425 8.37235e-05 -2.88422e-06
-0.411704 0.0664457 7.73566e-06 -2.62519e-07
-0.426319 0.066858 7.01222e-07 -2.34295e-08
-0.441257 0.0672797 8.49827e-08 -2.8614e-09
-0.000539809 0.0616335 0.0353135 -0.0156047
-0.00549309 0.061785 0.00350846 -0.0131258
-0.0105722 0.0619407 -0.0571858 -0.00928209
-0.01578 0.0621006 -0.0777448 -0.00794783
-0.0211192 0.0622647 -0.0919041 -0.00702694
-0.0265927 0.0624332 -0.101276 -0.006404
-0.0322035 0.0626062 -0.106076 -0.00604995
-0.0379547 0.0627836 -0.106721 -0.00592601
-0.0438492 0.0629658 -0.103835 -0.00598415
-0.0498903 0.0631527 -0.0981688 -0.00617276
-0.0560811 0.0633444 -0.0905101 -0.00644223
-0.0624249 0.0635411 -0.0816059 -0.00674858
-0.068925 0.0637428 -0.0721086 -0.00705618
-0.0755848 0.0639497 -0.062542 -0.00733872
-0.0824079 0.0641619 -0.053291 -0.00757871
-0.0893977 0.0643795 -0.0446086 -0.0077665
-0.0965578 0.0646026 -0.0366345 -0.0078984
-0.103892 0.0648313 -0.0294199 -0.00797505
-0.111404 0.0650657 -0.0229523 -0.00799978
-0.119097 0.065306 -0.017179 -0.00797734
-0.126976 0.0655523 -0.0120249 -0.0079128
-0.135045 0.0658047 -0.0074059 -0.00781116
-0.143307 0.0660632 -0.00323829 -0.00767679
-0.151766 0.0663282 0.000556498 -0.00751328
-0.160427 0.0665996 0.0040488 -0.00732342
-0.169295 0.0668776 0.00729961 -0.00710936
-0.178372 0.0671624 0.0103619 -0.00687266
-0.187664 0.0674541 0.0132822 -0.00661456
-0.197176 0.0677528 0.0161042 -0.0063367
-0.206911 0.0680586 0.0188714 -0.00604123
-0.216875 0.0683718 0.0216291 -0.00573161
-0.227072 0.0686924 0.0244279 -0.00541272
-0.237507 0.0690206 0.0273516 -0.00509208
-0.248184 0.0693566 0.0307006 -0.0047857
-0.259109 0.0697005 0.0360497 -0.00455777
-0.270287 0.0700525 0.0519048 -0.00474903
-0.281722 0.0704127 0.122235 -0.0071621
-0.29342 0.0707813 0.454067 -0.0203406
-0.305385 0.0711585 1.67242 -0.0688036
-0.317624 0.0715444 3.06546 -0.115555
-0.330141 0.0719392 2.31046 -0.0892015
-0.342942 0.0723432 0.636172 -0.0256229
-0.356031 0.0727564 0.0849919 -0.00342836
-0.369416 0.073179 0.00899788 -0.000358961
-0.3831 0.0736113 0.000889129 -3.50127e-05
-0.397089 0.0740534 8.44016e-05 -3.27715e-06
-0.41139 0.0745056 7.79891e-06 -2.98414e-07
-0.426007 0.0749681 7.06997e-07 -2.66456e-08
-0.440947 0.075441 8.56853e-08 -3.2502e-09
-0.00010541 0.0683381 0.0347414 -0.0171183
-0.00505982 0.0685062 0.00299556 -0.0143914
-0.0101401 0.0686789 -0.0573715 -0.0101464
-0.015349 0.0688563 -0.0778755 -0.00866321
-0.0206895 0.0690384 -0.0920122 -0.00763506
-0.0261643 0.0692253 -0.10138 -0.0069356
-0.0317764 0.0694172 -0.106193 -0.00653363
-0.0375289 0.0696141 -0.106862 -0.00638693
-0.0434248 0.0698162 -0.104007 -0.00644288
-0.0494673 0.0700235 -0.0983757 -0.00664469
-0.0556595 0.0702362 -0.0907511 -0.00693733
-0.0620047 0.0704544 -0.081878 -0.00727203
-0.0685063 0.0706782 -0.0724067 -0.00760892
-0.0751676 0.0709078 -0.0628605 -0.00791839
-0.0819922 0.0711432 -0.0536244 -0.00818076
-0.0889835 0.0713845 -0.0449519 -0.00838476
-0.0961452 0.071632 -0.0369838 -0.00852603
-0.103481 0.0718857 -0.0297721 -0.00860496
-0.110994 0.0721458 -0.0233056 -0.00862501
-0.11869 0.0724124 -0.0175321 -0.00859129
-0.12657 0.0726856 -0.0123773 -0.00850946
-0.13464 0.0729655 -0.0077577 -0.008385
-0.142904 0.0732524 -0.00358981 -0.00822296
-0.151365 0.0735463 0.000204626 -0.00802751
-0.160028 0.0738473 0.00369589 -0.00780211
-0.168897 0.0741558 0.00694497 -0.00754962
-0.177977 0.0744717 0.0100049 -0.0072725
-0.187271 0.0747952 0.0129227 -0.00697292
-0.196784 0.0751265 0.0157424 -0.00665373
-0.206521 0.0754658 0.0185083 -0.00631839
-0.216487 0.0758132 0.0212664 -0.00597166
-0.226686 0.0761688 0.024068 -0.0056195
-0.237122 0.0765329 0.026996 -0.00526968
-0.247802 0.0769056 0.0303453 -0.00493812
-0.258729 0.0772871 0.0356702 -0.00469379
-0.269908 0.0776775 0.0514014 -0.00491615
-0.281346 0.0780771 0.121209 -0.00761955
-0.293046 0.078486 0.450929 -0.0223072
-0.305014 0.0789043 1.66445 -0.0763186
-0.317254 0.0793324 3.06198 -0.129263
-0.329774 0.0797703 2.31568 -0.0998274
-0.342577 0.0802184 0.64 -0.0287
-0.355669 0.0806767 0.0856587 -0.00384475
-0.369056 0.0811455 0.00907159 -0.000402712
-0.382742 0.081625 0.000896569 -3.92901e-05
-0.396734 0.0821154 8.51176e-05 -3.67864e-06
-0.411038 0.082617 7.86567e-06 -3.35061e-07
-0.425657 0.0831299 7.13083e-07 -2.99239e-08
-0.440599 0.0836545 8.64241e-08 -3.64379e-09
0.000377117 0.0750835 0.0341242 -0.0186138
-0.00457859 0.0752683 0.00243664 -0.0156393
-0.00966021 0.0754582 -0.0575845 -0.0109947
-0.0148705 0.0756532 -0.0780301 -0.0093616
-0.0202123 0.0758534 -0.0921427 -0.00822465
-0.0256886 0.0760589 -0.101507 -0.00744696
-0.0313022 0.0762699 -0.106332 -0.00699533
-0.0370562 0.0764864 -0.107025 -0.00682422
-0.0429536 0.0767085 -0.104204 -0.00687648
-0.0489976 0.0769364 -0.0986095 -0.00709025
-0.0551914 0.0771703 -0.0910215 -0.00740518
-0.0615382 0.0774102 -0.0821817 -0.0077677
-0.0680414 0.0776562 -0.0727389 -0.0081337
-0.0747044 0.0779086 -0.0632153 -0.00847038
-0.0815307 0.0781674 -0.053996 -0.00875564
-0.0885237 0.0784327 -0.0453353 -0.00897671
-0.0956872 0.0787048 -0.0373747 -0.00912846
-0.103025 0.0789837 -0.0301674 -0.00921103
-0.11054 0.0792696 -0.0237031 -0.00922807
-0.118237 0.0795626 -0.0179305 -0.00918514
-0.126119 0.079863 -0.012776 -0.00908848
-0.134191 0.0801707 -0.00815645 -0.00894427
-0.142457 0.080486 -0.0039888 -0.00875822
-0.15092 0.0808091 -0.000195014 -0.00853537
-0.159585 0.0811401 0.00329519 -0.00827994
-0.168456 0.0814791 0.00654297 -0.00799559
-0.177537 0.0818264 0.00960152 -0.00768583
-0.186834 0.0821821 0.0125182 -0.00735384
-0.196349 0.0825463 0.0153378 -0.00700358
-0.206088 0.0829192 0.0181051 -0.00663972
-0.216056 0.0833011 0.0208668 -0.00626793
-0.226257 0.083692 0.0236742 -0.0058948
-0.236696 0.0840922 0.0266088 -0.00552781
-0.247378 0.0845019 0.0299595 -0.00518266
-0.258307 0.0849212 0.0352604 -0.00493348
-0.269489 0.0853504 0.0508688 -0.00519909
-0.280928 0.0857896 0.120147 -0.00820066
-0.292631 0.086239 0.44766 -0.0243733
-0.304601 0.0866989 1.656 -0.0838336
-0.316844 0.0871694 3.05816 -0.142917
-0.329366 0.0876508 2.32111 -0.110499
-0.342172 0.0881432 0.644057 -0.0318283
-0.355267 0.088647 0.086368 -0.00427057
-0.368656 0.0891623 0.00914995 -0.000447488
-0.382345 0.0896893 0.000904474 -4.36704e-05
-0.39634 0.0902284 8.58778e-05 -4.08973e-06
-0.410646 0.0907796 7.9365e-06 -3.72568e-07
-0.425269 0.0913434 7.19532e-07 -3.32757e-08
-0.440214 0.09192 8.72057e-08 -4.04716e-09
0.000908689 0.0818694 0.0334631 -0.0200905
-0.0040485 0.0820711 0.00183212 -0.0168688
-0.00913162 0.0822783 -0.0578258 -0.011827
-0.0143435 0.0824911 -0.0782101 -0.010043
-0.0196869 0.0827096 -0.0922971 -0.00879589
-0.0251647 0.0829338 -0.101657 -0.00793857
-0.0307799 0.083164 -0.106494 -0.00743577
-0.0365356 0.0834002 -0.107214 -0.00723886
-0.0424347 0.0836426 -0.104427 -0.00728631
-0.0484804 0.0838913 -0.0988713 -0.00751106
-0.054676 0.0841464 -0.0913217 -0.00784772
-0.0610246 0.0844082 -0.0825175 -0.00823781
-0.0675296 0.0846767 -0.0731051 -0.00863313
-0.0741945 0.084952 -0.0636061 -0.00899761
-0.0810226 0.0852344 -0.0544054 -0.00930663
-0.0880176 0.0855239 -0.045758 -0.00954597
-0.0951829 0.0858207 -0.0378063 -0.0097097
-0.102522 0.086125 -0.0306046 -0.00979771
-0.11004 0.086437 -0.0241434 -0.00981389
-0.117739 0.0867567 -0.0183725 -0.00976427
-0.125623 0.0870844 -0.0132188 -0.00965572
-0.133697 0.0874201 -0.0085997 -0.00949521
-0.141965 0.0877642 -0.00443235 -0.00928923
-0.15043 0.0881166 -0.0006389 -0.00904367
-0.159097 0.0884777 0.00285088 -0.00876364
-0.16797 0.0888476 0.00609842 -0.00845368
-0.177054 0.0892265 0.00915714 -0.00811825
-0.186352 0.0896145 0.0120748 -0.00776151
-0.19587 0.0900119 0.0148968 -0.00738836
-0.205612 0.0904187 0.0176684 -0.00700433
-0.215582 0.0908353 0.0204367 -0.00661561
-0.225785 0.0912618 0.0232526 -0.00622884
-0.236227 0.0916984 0.0261955 -0.00585086
-0.246911 0.0921454 0.0295482 -0.00549714
-0.257842 0.0926028 0.0348255 -0.00524742
-0.269027 0.093071 0.0503117 -0.00555992
-0.280469 0.0935501 0.119047 -0.00885726
-0.292174 0.0940404 0.444235 -0.0264824
-0.304147 0.094542 1.64702 -0.0913059
-0.316393 0.0950553 3.05396 -0.156532
-0.328917 0.0955805 2.32677 -0.121242
-0.341726 0.0961177 0.648368 -0.0350178
-0.354824 0.0966672 0.0871245 -0.00470707
-0.368216 0.0972293 0.00923351 -0.00049342
-0.381908 0.0978043 0.000912899 -4.81654e-05
-0.395906 0.0983923 8.66876e-05 -4.51163e-06
-0.410216 0.0989937 8.01189e-06 -4.11054e-07
-0.424842 0.0996087 7.26391e-07 -3.67148e-08
-0.43979 0.100238 8.80363e-08 -4.46165e-09
0.00149022 0.0886957 0.0327589 -0.0215487
-0.00346862 0.0889144 0.00118232 -0.0180797
-0.00855342 0.0891391 -0.0580964 -0.0126434
-0.013767 0.0893698 -0.0784167 -0.0107077
-0.0191121 0.0896066 -0.0924769 -0.00934946
-0.0245917 0.0898498 -0.101831 -0.00841129
-0.0302088 0.0900993 -0.106681 -0.00785613
-0.0359663 0.0903554 -0.107428 -0.00763234
-0.0418673 0.0906182 -0.104677 -0.00767406
-0.0479149 0.0908879 -0.0991614 -0.00790927
-0.0541124 0.0911645 -0.0916522 -0.00826745
-0.060463 0.0914483 -0.0828852 -0.00868523
-0.06697 0.0917394 -0.0735051 -0.00911035
-0.0736369 0.0920379 -0.0640323 -0.00950336
-0.0804671 0.092344 -0.0548519 -0.00983727
-0.0874641 0.0926579 -0.0462191 -0.0100963
-0.0946316 0.0929797 -0.0382775 -0.0102737
-0.101973 0.0933096 -0.0310823 -0.0103692
-0.109493 0.0936478 -0.024625 -0.0103869
-0.117194 0.0939944 -0.0188562 -0.0103333
-0.125081 0.0943496 -0.0137035 -0.010216
-0.133157 0.0947136 -0.00908479 -0.0100427
-0.141427 0.0950866 -0.00491737 -0.00982078
-0.149894 0.0954687 -0.00112357 -0.00955703
-0.158564 0.0958602 0.00236684 -0.00925741
-0.167439 0.0962611 0.00561557 -0.00892733
-0.176525 0.0966718 0.00867629 -0.00857206
-0.185826 0.0970925 0.0115972 -0.0081966
-0.195347 0.0975232 0.014424 -0.00780653
-0.205091 0.0979642 0.0172026 -0.00740786
-0.215063 0.0984158 0.0199798 -0.00700694
-0.225269 0.0988782 0.022806 -0.00661006
-0.235713 0.0993514 0.0257582 -0.0062233
-0.2464 0.0998359 0.0291132 -0.0058619
-0.257334 0.100332 0.0343669 -0.00561166
-0.268522 0.100839 0.0497302 -0.0059699
-0.279966 0.101359 0.117904 -0.00955495
-0.291674 0.10189 0.440634 -0.0285973
-0.30365 0.102434 1.63747 -0.0987082
-0.315899 0.10299 3.04937 -0.170121
-0.328427 0.103559 2.33269 -0.132078
-0.341238 0.104142 0.652955 -0.0382775
-0.354339 0.104737 0.0879327 -0.00515564
-0.367735 0.105347 0.00932277 -0.000540651
-0.38143 0.10597 0.000921895 -5.27874e-05
-0.395432 0.106607 8.75518e-05 -4.94546e-06
-0.409745 0.107259 8.09233e-06 -4.50644e-07
-0.424374 0.107926 7.33703e-07 -4.02527e-08
-0.439326 0.108607 8.89211e-08 -4.88853e-09
0.00212263 0.0955621 0.0320124 -0.0229891
-0.00283804 0.0957979 0.00048731 -0.0192724
-0.00792471 0.0960402 -0.0583972 -0.0134445
-0.0131402 0.096289 -0.0786509 -0.0113567