VARIABLES = "X", "Y", "Mach" 
ZONE I= 49, J= 149, DATAPACKING=POINT
-0.00243344 0.00315472 0.0108225
-0.00738272 0.00316244 0.0128607
-0.0124575 0.00317039 0.0179388
-0.0176607 0.00317854 0.0238068
-0.0229951 0.00318692 0.0300311
-0.0284636 0.00319552 0.0364862
-0.0340692 0.00320435 0.04312
-0.0398149 0.00321341 0.049906
-0.0457038 0.00322271 0.0568286
-0.0517391 0.00323225 0.0638777
-0.0579239 0.00324204 0.0710463
-0.0642617 0.00325209 0.07833
-0.0707556 0.00326239 0.0857263
-0.0774091 0.00327296 0.0932346
-0.0842256 0.00328379 0.100856
-0.0912088 0.0032949 0.108593
-0.0983623 0.0033063 0.11645
-0.10569 0.00331798 0.124433
-0.113195 0.00332995 0.132548
-0.120881 0.00334222 0.140802
-0.128753 0.0033548 0.149205
-0.136814 0.00336769 0.157765
-0.145068 0.0033809 0.166492
-0.15352 0.00339443 0.175398
-0.162174 0.00340829 0.184495
-0.171034 0.0034225 0.193795
-0.180103 0.00343704 0.203315
-0.189388 0.00345194 0.21307
-0.198891 0.0034672 0.223079
-0.208619 0.00348283 0.233361
-0.218574 0.00349883 0.24394
-0.228763 0.00351521 0.254837
-0.239189 0.00353198 0.266077
-0.249857 0.00354914 0.277689
-0.260774 0.00356671 0.289738
-0.271942 0.0035847 0.302528
-0.283368 0.0036031 0.317789
-0.295057 0.00362194 0.345138
-0.307013 0.00364121 0.43701
-0.319242 0.00366093 0.885076
-0.331749 0.0036811 2.997
-0.34454 0.00370174 5.5183
-0.357619 0.00372286 5.96986
-0.370992 0.00374445 6.01178
-0.384665 0.00376654 6.01528
-0.398643 0.00378914 6.01558
-0.41293 0.00381225 6.0156
-0.427533 0.00383588 6.0156
-0.442457 0.00386005 6.0156
-0.00239145 0.00948519 0.0140237
-0.00734078 0.00950842 0.0156258
-0.0124157 0.00953231 0.0199691
-0.0176189 0.00955685 0.0253252
-0.0229534 0.00958204 0.0312047
-0.028422 0.0096079 0.0374185
-0.0340276 0.00963445 0.0438762
-0.0397735 0.0096617 0.0505291
-0.0456625 0.00968966 0.0573482
-0.0516979 0.00971835 0.0643149
-0.0578829 0.00974779 0.0714166
-0.0642207 0.00977799 0.0786449
-0.0707147 0.00980896 0.0859945
-0.0773684 0.00984073 0.0934628
-0.0841851 0.00987332 0.101049
-0.0911684 0.00990673 0.108756
-0.0983219 0.00994098 0.116585
-0.105649 0.0099761 0.124542
-0.113154 0.0100121 0.132633
-0.120841 0.010049 0.140865
-0.128713 0.0100868 0.149245
-0.136774 0.0101256 0.157782
-0.145029 0.0101653 0.166487
-0.153481 0.010206 0.175369
-0.162135 0.0102477 0.18444
-0.170995 0.0102904 0.193713
-0.180065 0.0103341 0.203201
-0.189349 0.0103789 0.212919
-0.198853 0.0104248 0.222884
-0.20858 0.0104718 0.233114
-0.218536 0.0105199 0.243624
-0.228724 0.0105691 0.254433
-0.239151 0.0106196 0.265554
-0.24982 0.0106712 0.277003
-0.260736 0.010724 0.288825
-0.271905 0.0107781 0.301305
-0.283331 0.0108334 0.316161
-0.29502 0.01089 0.342992
-0.306976 0.010948 0.434
-0.319205 0.0110073 0.879489
-0.331713 0.0110679 2.98313
-0.344503 0.01113 5.51517
-0.357583 0.0111935 5.96957
-0.370957 0.0112584 6.01176
-0.38463 0.0113249 6.01528
-0.398608 0.0113928 6.01558
-0.412896 0.0114623 6.0156
-0.427499 0.0115333 6.0156
-0.442422 0.011606 6.0156
-0.00230942 0.0158577 0.0212943
-0.00725886 0.0158966 0.0223589
-0.0123339 0.0159365 0.0255369
-0.0175373 0.0159775 0.0298602
-0.0228719 0.0160197 0.0349339
-0.0283407 0.0160629 0.0405315
-0.0339466 0.0161073 0.0465141
-0.0396926 0.0161529 0.0527949
-0.0455819 0.0161996 0.0593173
-0.0516175 0.0162476 0.0660435
-0.0578027 0.0162968 0.0729473
-0.0641408 0.0163473 0.0800105
-0.0706351 0.0163991 0.0872206
-0.077289 0.0164522 0.0945694
-0.084106 0.0165067 0.102052
-0.0910895 0.0165626 0.109668
-0.0982434 0.0166198 0.117417
-0.105571 0.0166785 0.125301
-0.113077 0.0167387 0.133326
-0.120763 0.0168004 0.141497
-0.128636 0.0168637 0.149819
-0.136697 0.0169285 0.158302
-0.144952 0.0169949 0.166953
-0.153405 0.0170629 0.175781
-0.162059 0.0171326 0.184798
-0.170919 0.017204 0.194013
-0.179989 0.0172771 0.203441
-0.189274 0.017352 0.213092
-0.198778 0.0174288 0.222982
-0.208506 0.0175073 0.233124
-0.218462 0.0175877 0.243532
-0.228651 0.0176701 0.254218
-0.239077 0.0177544 0.26519
-0.249747 0.0178407 0.276459
-0.260663 0.017929 0.288068
-0.271832 0.0180194 0.300312
-0.283259 0.018112 0.31493
-0.294948 0.0182066 0.341522
-0.306905 0.0183035 0.432005
-0.319135 0.0184027 0.875085
-0.331642 0.0185041 2.97023
-0.344434 0.0186078 5.51175
-0.357514 0.018714 5.96923
-0.370888 0.0188226 6.01173
-0.384561 0.0189336 6.01528
-0.39854 0.0190472 6.01558
-0.412828 0.0191634 6.0156
-0.427432 0.0192822 6.0156
-0.442357 0.0194037 6.0156
-0.00218649 0.0222722 0.0291403
-0.00713611 0.0223268 0.0299092
-0.0122114 0.0223829 0.0323113
-0.017415 0.0224405 0.0357752
-0.0227499 0.0224997 0.0400533
-0.028219 0.0225605 0.0449644
-0.0338252 0.0226228 0.0503712
-0.0395716 0.0226868 0.0561728
-0.0454612 0.0227525 0.0622962
-0.0514972 0.0228199 0.0686883
-0.0576828 0.022889 0.0753101
-0.0640212 0.02296 0.0821331
-0.0705159 0.0230327 0.0891369
-0.0771702 0.0231073 0.0963068
-0.0839876 0.0231839 0.103633
-0.0909716 0.0232623 0.11111
-0.0981258 0.0233428 0.118735
-0.105454 0.0234253 0.126508
-0.11296 0.0235098 0.13443
-0.120647 0.0235965 0.142506
-0.12852 0.0236853 0.15074
-0.136582 0.0237763 0.159139
-0.144837 0.0238696 0.167708
-0.15329 0.0239652 0.176457
-0.161945 0.0240631 0.185394
-0.170805 0.0241634 0.194529
-0.179876 0.0242661 0.203873
-0.189162 0.0243713 0.213437
-0.198666 0.0244791 0.223233
-0.208394 0.0245894 0.233273
-0.218351 0.0247024 0.243568
-0.22854 0.0248181 0.25413
-0.238968 0.0249365 0.264967
-0.249637 0.0250577 0.276092
-0.260555 0.0251818 0.287558
-0.271724 0.0253088 0.299681
-0.283152 0.0254387 0.314227
-0.294841 0.0255717 0.340777
-0.306799 0.0257078 0.430902
-0.319029 0.0258471 0.871624
-0.331537 0.0259896 2.95803
-0.344329 0.0261353 5.50823
-0.35741 0.0262844 5.96887
-0.370785 0.0264369 6.0117
-0.384459 0.0265929 6.01528
-0.398438 0.0267525 6.01558
-0.412728 0.0269156 6.0156
-0.427333 0.0270825 6.0156
-0.442259 0.0272532 6.0156
-0.00202176 0.0287285 0.0371578
-0.00697167 0.028799 0.0377489
-0.0120472 0.0288714 0.0396392
-0.0172512 0.0289457 0.0424602
-0.0225866 0.0290221 0.046067
-0.028056 0.0291005 0.0503378
-0.0336627 0.0291809 0.0551634
-0.0394095 0.0292635 0.060451
-0.0452996 0.0293482 0.0661258
-0.0513361 0.0294352 0.0721283
-0.0575222 0.0295244 0.0784118
-0.0638611 0.0296159 0.0849403
-0.0703563 0.0297097 0.0916864
-0.0770112 0.029806 0.0986297
-0.0838291 0.0299047 0.105755
-0.0908137 0.030006 0.113053
-0.0979685 0.0301098 0.120517
-0.105297 0.0302162 0.128144
-0.112804 0.0303253 0.135933
-0.120492 0.0304371 0.143885
-0.128365 0.0305517 0.152004
-0.136428 0.0306691 0.160294
-0.144684 0.0307894 0.16876
-0.153137 0.0309127 0.177409
-0.161793 0.0310391 0.186249
-0.170654 0.0311684 0.195287
-0.179725 0.031301 0.204534
-0.189011 0.0314367 0.214001
-0.198517 0.0315757 0.223697
-0.208246 0.0317181 0.233636
-0.218203 0.0318638 0.243828
-0.228393 0.0320131 0.254284
-0.238821 0.0321658 0.265018
-0.249492 0.0323222 0.27605
-0.26041 0.0324823 0.287445
-0.27158 0.0326461 0.299538
-0.283008 0.0328138 0.314112
-0.294699 0.0329854 0.340697
-0.306657 0.0331609 0.43048
-0.318888 0.0333406 0.868797
-0.331397 0.0335244 2.94634
-0.34419 0.0337124 5.50472
-0.357271 0.0339047 5.9685
-0.370647 0.0341015 6.01167
-0.384323 0.0343027 6.01528
-0.398303 0.0345086 6.01558
-0.412594 0.0347191 6.0156
-0.4272 0.0349344 6.0156
-0.442128 0.0351546 6.0156
-0.00181435 0.0352266 0.0452693
-0.00676466 0.035313 0.0457422
-0.0118407 0.0354018 0.0472757
-0.0170451 0.035493 0.0496155
-0.022381 0.0355867 0.0526792
-0.027851 0.0356828 0.0563922
-0.0334582 0.0357815 0.0606775
-0.0392056 0.0358828 0.0654609
-0.0450963 0.0359867 0.0706755
-0.0511334 0.0360933 0.0762636
-0.0573201 0.0362027 0.0821767
-0.0636597 0.036315 0.0883751
-0.0701556 0.0364301 0.094827
-0.0768111 0.0365482 0.101507
-0.0836298 0.0366693 0.108398
-0.0906151 0.0367934 0.115483
-0.0977706 0.0369208 0.122755
-0.1051 0.0370513 0.130207
-0.112607 0.0371851 0.137836
-0.120296 0.0373222 0.145641
-0.12817 0.0374627 0.153623
-0.136234 0.0376068 0.161784
-0.144491 0.0377544 0.170129
-0.152945 0.0379056 0.178663
-0.161601 0.0380605 0.187393
-0.170463 0.0382192 0.196325
-0.179535 0.0383817 0.20547
-0.188822 0.0385482 0.214837
-0.198328 0.0387187 0.224437
-0.208058 0.0388933 0.234283
-0.218016 0.039072 0.244386
-0.228208 0.0392551 0.254762
-0.238637 0.0394424 0.265428
-0.249308 0.0396342 0.276409
-0.260227 0.0398305 0.287785
-0.271399 0.0400315 0.299901
-0.282827 0.0402371 0.314544
-0.294519 0.0404475 0.341169
-0.306478 0.0406629 0.430553
-0.318711 0.0408832 0.866375
-0.331221 0.0411086 2.93496
-0.344015 0.0413392 5.50122
-0.357097 0.0415751 5.96814
-0.370474 0.0418164 6.01164
-0.384151 0.0420632 6.01527
-0.398133 0.0423156 6.01558
-0.412425 0.0425738 6.0156
-0.427033 0.0428378 6.0156
-0.441963 0.0431079 6.0156
-0.00156336 0.0417662 0.0534476
-0.00651419 0.0418688 0.0538359
-0.0115908 0.0419741 0.0551072
-0.0167958 0.0420823 0.0570782
-0.0221323 0.0421934 0.0597041
-0.027603 0.0423074 0.0629434
-0.0332109 0.0424245 0.0667463
-0.038959 0.0425446 0.0710586
-0.0448504 0.0426678 0.0758262
-0.0508883 0.0427943 0.0809982
-0.0570758 0.0429241 0.0865287
-0.0634162 0.0430572 0.0923782
-0.0699129 0.0431937 0.0985131
-0.0765693 0.0433338 0.104906
-0.0833888 0.0434774 0.111535
-0.090375 0.0436246 0.118384
-0.0975314 0.0437756 0.12544
-0.104862 0.0439304 0.132695
-0.11237 0.0440891 0.140142
-0.12006 0.0442517 0.14778
-0.127935 0.0444184 0.155607
-0.135999 0.0445892 0.163624
-0.144257 0.0447643 0.171835
-0.152712 0.0449436 0.180243
-0.161369 0.0451273 0.188854
-0.170233 0.0453155 0.197675
-0.179306 0.0455083 0.206716
-0.188594 0.0457057 0.215985
-0.198101 0.0459079 0.225494
-0.207832 0.046115 0.235257
-0.217791 0.046327 0.245289
-0.227984 0.046544 0.255605
-0.238414 0.0467662 0.266227
-0.249086 0.0469937 0.277188
-0.260007 0.0472265 0.288574
-0.271179 0.0474648 0.300736
-0.282609 0.0477087 0.315452
-0.294302 0.0479582 0.342084
-0.306263 0.0482136 0.430988
-0.318496 0.0484749 0.864193
-0.331008 0.0487422 2.92366
-0.343803 0.0490156 5.49769
-0.356887 0.0492954 5.96777
-0.370266 0.0495815 6.01161
-0.383944 0.0498742 6.01527
-0.397927 0.0501736 6.01558
-0.412221 0.0504798 6.0156
-0.426831 0.0507929 6.0156
-0.441764 0.0511132 6.0156
-0.00126787 0.0483474 0.0616797
-0.00621937 0.0484661 0.0620041
-0.0112966 0.0485881 0.0630741
-0.0165025 0.0487134 0.0647547
-0.0218397 0.0488421 0.0670241
-0.0273112 0.0489741 0.0698632
-0.0329199 0.0491096 0.0732431
-0.0386689 0.0492487 0.0771271
-0.0445612 0.0493915 0.0814746
-0.0506 0.0495379 0.0862439
-0.0567884 0.0496882 0.0913947
-0.0631298 0.0498423 0.0968901
-0.0696275 0.0500004 0.102697
-0.0762849 0.0501626 0.108789
-0.0831054 0.0503289 0.115141
-0.0900926 0.0504994 0.121735
-0.0972501 0.0506743 0.128558
-0.104582 0.0508535 0.135597
-0.112091 0.0510373 0.142847
-0.119782 0.0512256 0.150303
-0.127658 0.0514186 0.157961
-0.135723 0.0516164 0.165823
-0.143982 0.0518191 0.173889
-0.152439 0.0520268 0.182164
-0.161097 0.0522395 0.190651
-0.169961 0.0524574 0.199359
-0.179036 0.0526806 0.208294
-0.188325 0.0529093 0.217469
-0.197834 0.0531434 0.226893
-0.207566 0.0533831 0.236583
-0.217527 0.0536286 0.246553
-0.22772 0.0538799 0.256824
-0.238152 0.0541372 0.267418
-0.248826 0.0544006 0.278374
-0.259747 0.0546702 0.28978
-0.270921 0.0549461 0.30199
-0.282353 0.0552285 0.316762
-0.294047 0.0555174 0.343356
-0.306009 0.0558131 0.431691
-0.318244 0.0561156 0.86213
-0.330757 0.0564251 2.91221
-0.343554 0.0567418 5.49408
-0.35664 0.0570657 5.96739
-0.37002 0.057397 6.01158
-0.3837 0.0577359 6.01527
-0.397685 0.0580825 6.01558
-0.411981 0.0584371 6.0156
-0.426594 0.0587996 6.0156
-0.441529 0.0591705 6.0156
-0.000926992 0.0549698 0.0699585
-0.0058793 0.0551049 0.0702328
-0.0109574 0.0552437 0.0711427
-0.0161641 0.0553862 0.0725886
-0.0215023 0.0555326 0.0745636
-0.0269747 0.0556828 0.0770634
-0.0325844 0.0558369 0.0800743
-0.0383344 0.0559951 0.0835743
-0.0442277 0.0561575 0.0875348
-0.0502676 0.0563241 0.0919236
-0.0564571 0.056495 0.0967075
-0.0627996 0.0566703 0.101854
-0.0692984 0.0568502 0.107333
-0.075957 0.0570347 0.113117
-0.0827787 0.0572238 0.119183
-0.0897671 0.0574178 0.125513
-0.0969258 0.0576167 0.132091
-0.104259 0.0578205 0.138904
-0.111769 0.0580295 0.145945
-0.119461 0.0582437 0.153207
-0.127339 0.0584633 0.160688
-0.135405 0.0586883 0.168385
-0.143666 0.0589188 0.1763
-0.152124 0.059155 0.184436
-0.160783 0.059397 0.192796
-0.169649 0.0596448 0.201387
-0.178725 0.0598987 0.210218
-0.188016 0.0601587 0.219299
-0.197526 0.060425 0.228643
-0.207259 0.0606977 0.238264
-0.217221 0.0609769 0.248181
-0.227417 0.0612628 0.258413
-0.237849 0.0615554 0.268986
-0.248525 0.0618549 0.27994
-0.259448 0.0621615 0.291366
-0.270624 0.0624754 0.303613
-0.282057 0.0627965 0.318415
-0.293753 0.0631251 0.344924
-0.305717 0.0634614 0.432605
-0.317954 0.0638055 0.860103
-0.330469 0.0641575 2.90041
-0.343267 0.0645176 5.49034
-0.356355 0.064886 5.96699
-0.369737 0.0652628 6.01154
-0.383419 0.0656483 6.01526
-0.397406 0.0660425 6.01557
-0.411704 0.0664457 6.0156
-0.426319 0.066858 6.0156
-0.441257 0.0672797 6.0156
-0.000539809 0.0616335 0.0782799
-0.00549309 0.061785 0.0785137
-0.0105722 0.0619407 0.0792927
-0.01578 0.0621006 0.0805447
-0.0211192 0.0622647 0.0822727
-0.0265927 0.0624332 0.0844824
-0.0322035 0.0626062 0.0871716
-0.0379547 0.0627836 0.0903291
-0.0438492 0.0629658 0.093937
-0.0498903 0.0631527 0.0979719
-0.0560811 0.0633444 0.102408
-0.0624249 0.0635411 0.107217
-0.068925 0.0637428 0.112374
-0.0755848 0.0639497 0.117852
-0.0824079 0.0641619 0.123632
-0.0893977 0.0643795 0.129692
-0.0965578 0.0646026 0.136019
-0.103892 0.0648313 0.1426
-0.111404 0.0650657 0.149425
-0.119097 0.065306 0.156487
-0.126976 0.0655523 0.163783
-0.135045 0.0658047 0.17131
-0.143307 0.0660632 0.179068
-0.151766 0.0663282 0.18706
-0.160427 0.0665996 0.19529
-0.169295 0.0668776 0.203764
-0.178372 0.0671624 0.21249
-0.187664 0.0674541 0.221479
-0.197176 0.0677528 0.230744
-0.206911 0.0680586 0.240299
-0.216875 0.0683718 0.250163
-0.227072 0.0686924 0.260358
-0.237507 0.0690206 0.270909
-0.248184 0.0693566 0.281858
-0.259109 0.0697005 0.293294
-0.270287 0.0700525 0.305561
-0.281722 0.0704127 0.320366
-0.29342 0.0707813 0.346747
-0.305385 0.0711585 0.433694
-0.317624 0.0715444 0.85806
-0.330141 0.0719392 2.88811
-0.342942 0.0723432 5.48641
-0.356031 0.0727564 5.96657
-0.369416 0.073179 6.01151
-0.3831 0.0736113 6.01526
-0.397089 0.0740534 6.01557
-0.41139 0.0745056 6.0156
-0.426007 0.0749681 6.0156
-0.440947 0.075441 6.0156
-0.00010541 0.0683381 0.0866416
-0.00505982 0.0685062 0.0868418
-0.0101401 0.0686789 0.0875112
-0.015349 0.0688563 0.0885998
-0.0206895 0.0690384 0.0901176
-0.0261643 0.0692253 0.0920773
-0.0317764 0.0694172 0.0944846
-0.0375289 0.0696141 0.0973373
-0.0434248 0.0698162 0.100626
-0.0494673 0.0700235 0.104335
-0.0556595 0.0702362 0.108444
-0.0620047 0.0704544 0.112933
-0.0685063 0.0706782 0.117779
-0.0751676 0.0709078 0.122959
-0.0819922 0.0711432 0.128455
-0.0889835 0.0713845 0.134248
-0.0961452 0.071632 0.140322
-0.103481 0.0718857 0.146667
-0.110994 0.0721458 0.153272
-0.11869 0.0724124 0.160131
-0.12657 0.0726856 0.167237
-0.13464 0.0729655 0.17459
-0.142904 0.0732524 0.182189
-0.151365 0.0735463 0.190035
-0.160028 0.0738473 0.198133
-0.168897 0.0741558 0.206487
-0.177977 0.0744717 0.215107
-0.187271 0.0747952 0.224003
-0.196784 0.0751265 0.233187
-0.206521 0.0754658 0.242675
-0.216487 0.0758132 0.252486
-0.226686 0.0761688 0.26264
-0.237122 0.0765329 0.273165
-0.247802 0.0769056 0.284101
-0.258729 0.0772871 0.295534
-0.269908 0.0776775 0.307803
-0.281346 0.0780771 0.322584
-0.293046 0.078486 0.348801
-0.305014 0.0789043 0.434942
-0.317254 0.0793324 0.855966
-0.329774 0.0797703 2.87517
-0.342577 0.0802184 5.48225
-0.355669 0.0806767 5.96613
-0.369056 0.0811455 6.01147
-0.382742 0.081625 6.01526
-0.396734 0.0821154 6.01557
-0.411038 0.082617 6.0156
-0.425657 0.0831299 6.0156
-0.440599 0.0836545 6.0156
0.000377117 0.0750835 0.0950424
-0.00457859 0.0752683 0.0952142
-0.00966021 0.0754582 0.0957901
-0.0148705 0.0756532 0.0967388
-0.0202123 0.0758534 0.0980753
-0.0256886 0.0760589 0.0998174
-0.0313022 0.0762699 0.101977
-0.0370562 0.0764864 0.104557
-0.0429536 0.0767085 0.107557
-0.0489976 0.0769364 0.110967
-0.0551914 0.0771703 0.114774
-0.0615382 0.0774102 0.118961
-0.0680414 0.0776562 0.123511
-0.0747044 0.0779086 0.128404
-0.0815307 0.0781674 0.133623
-0.0885237 0.0784327 0.139152
-0.0956872 0.0787048 0.144977
-0.103025 0.0789837 0.151087
-0.11054 0.0792696 0.157472
-0.118237 0.0795626 0.164125
-0.126119 0.079863 0.171041
-0.134191 0.0801707 0.178218
-0.142457 0.080486 0.185655
-0.15092 0.0808091 0.193353
-0.159585 0.0811401 0.201316
-0.168456 0.0814791 0.209549
-0.177537 0.0818264 0.218061
-0.186834 0.0821821 0.226861
-0.196349 0.0825463 0.235963
-0.206088 0.0829192 0.245381
-0.216056 0.0833011 0.255134
-0.226257 0.083692 0.265243
-0.236696 0.0840922 0.275734
-0.247378 0.0845019 0.286645
-0.258307 0.0849212 0.298063
-0.269489 0.0853504 0.310315
-0.280928 0.0857896 0.325052
-0.292631 0.086239 0.351073
-0.304601 0.0866989 0.436341
-0.316844 0.0871694 0.853803
-0.329366 0.0876508 2.8615
-0.342172 0.0881432 5.47784
-0.355267 0.088647 5.96567
-0.368656 0.0891623 6.01143
-0.382345 0.0896893 6.01525
-0.39634 0.0902284 6.01557
-0.410646 0.0907796 6.0156
-0.425269 0.0913434 6.0156
-0.440214 0.09192 6.0156
0.000908689 0.0818694 0.103482
-0.0040485 0.0820711 0.103629
-0.00913162 0.0822783 0.104124
-0.0143435 0.0824911 0.104951
-0.0196869 0.0827096 0.10613
-0.0251647 0.0829338 0.107681
-0.0307799 0.083164 0.10962
-0.0365356 0.0834002 0.111958
-0.0424347 0.0836426 0.114697
-0.0484804 0.0838913 0.117834
-0.054676 0.0841464 0.121361
-0.0610246 0.0844082 0.125266
-0.0675296 0.0846767 0.129535
-0.0741945 0.084952 0.134153
-0.0810226 0.0852344 0.139106
-0.0880176 0.0855239 0.144379
-0.0951829 0.0858207 0.149961
-0.102522 0.086125 0.155839
-0.11004 0.086437 0.162006
-0.117739 0.0867567 0.168454
-0.125623 0.0870844 0.17518
-0.133697 0.0874201 0.18218
-0.141965 0.0877642 0.189454
-0.15043 0.0881166 0.197002
-0.159097 0.0884777 0.204829
-0.16797 0.0888476 0.212939
-0.177054 0.0892265 0.22134
-0.186352 0.0896145 0.230043
-0.19587 0.0900119 0.239058
-0.205612 0.0904187 0.248402
-0.215582 0.0908353 0.258092
-0.225785 0.0912618 0.268148
-0.236227 0.0916984 0.278596
-0.246911 0.0921454 0.289473
-0.257842 0.0926028 0.300861
-0.269027 0.093071 0.313082
-0.280469 0.0935501 0.327755
-0.292174 0.0940404 0.353557
-0.304147 0.094542 0.437889
-0.316393 0.0950553 0.851562
-0.328917 0.0955805 2.84705
-0.341726 0.0961177 5.47313
-0.354824 0.0966672 5.96516
-0.368216 0.0972293 6.01139
-0.381908 0.0978043 6.01525
-0.395906 0.0983923 6.01557
-0.410216 0.0989937 6.0156
-0.424842 0.0996087 6.0156
-0.43979 0.100238 6.0156
0.00149022 0.0886957 0.11196
-0.00346862 0.0889144 0.112087
-0.00855342 0.0891391 0.11251
-0.013767 0.0893698 0.113231
-0.0191121 0.0896066 0.114269
-0.0245917 0.0898498 0.115651
-0.0302088 0.0900993 0.117395
-0.0359663 0.0903554 0.119514
-0.0418673 0.0906182 0.122017
-0.0479149 0.0908879 0.124905
-0.0541124 0.0911645 0.128173
-0.060463 0.0914483 0.131816
-0.06697 0.0917394 0.135822
-0.0736369 0.0920379 0.140181
-0.0804671 0.092344 0.144879
-0.0874641 0.0926579 0.149906
-0.0946316 0.0929797 0.15525
-0.101973 0.0933096 0.160902
-0.109493 0.0936478 0.166855
-0.117194 0.0939944 0.173102
-0.125081 0.0943496 0.179638
-0.133157 0.0947136 0.186462
-0.141427 0.0950866 0.193573
-0.149894 0.0954687 0.200971
-0.158564 0.0958602 0.20866
-0.167439 0.0962611 0.216645
-0.176525 0.0966718 0.224933
-0.185826 0.0970925 0.233534
-0.195347 0.0975232 0.242459
-0.205091 0.0979642 0.251724
-0.215063 0.0984158 0.261344
-0.225269 0.0988782 0.27134
-0.235713 0.0993514 0.281736
-0.2464 0.0998359 0.292569
-0.257334 0.100332 0.303916
-0.268522 0.100839 0.316092
-0.279966 0.101359 0.330688
-0.291674 0.10189 0.35625
-0.30365 0.102434 0.439588
-0.315899 0.10299 0.84924
-0.328427 0.103559 2.83176
-0.341238 0.104142 5.46811
-0.354339 0.104737 5.96463
-0.367735 0.105347 6.01134
-0.38143 0.10597 6.01525
-0.395432 0.106607 6.01557
-0.409745 0.107259 6.0156
-0.424374 0.107926 6.0156
-0.439326 0.108607 6.0156
0.00212263 0.0955621 0.120479
-0.00283804 0.0957979 0.120586
-0.00792471 0.0960402 0.120947
-0.0131402 0.096289 0.121572
-0.0184872 0.0965444 0.122486
-0.0239688 0.0968066 0.123716
-0.0295878 0.0970757 0.125285
-0.0353474 0.0973518 0.127207
-0.0412504 0.0976352 0.129496
-0.0473001 0.097926 0.132156
-0.0534997 0.0982243 0.135187
-0.0598525 0.0985303 0.138587
-0.0663617 0.0988441 0.142347
-0.0730308 0.099166 0.146461
-0.0798632 0.0994961 0.150918
-0.0868625 0.0998345 0.155708
-0.0940323 0.100182 0.160824
-0.101376 0.100537 0.166258
-0.108898 0.100902 0.172001
-0.116602 0.101276 0.17805
-0.124491 0.101659 0.1844
-0.13257 0.102051 0.19105
-0.140842 0.102453 0.197997
-0.149312 0.102865 0.205245
-0.157984 0.103287 0.212795
-0.166862 0.10372 0.220653
-0.175951 0.104162 0.228826
-0.185255 0.104616 0.237322
-0.194778 0.10508 0.246153
-0.204524 0.105556 0.255333
-0.2145 0.106043 0.264878
-0.224709 0.106541 0.274806
-0.235155 0.107051 0.285143
-0.245845 0.107573 0.295921
-0.256782 0.108108 0.307218
-0.267973 0.108655 0.319339
-0.27942 0.109215 0.333846
-0.291131 0.109788 0.359151
-0.30311 0.110374 0.441442
-0.315363 0.110974 0.846839
-0.327894 0.111588 2.81562
-0.340708 0.112215 5.46276
-0.353813 0.112857 5.96406
-0.367212 0.113514 6.01129
-0.380911 0.114186 6.01524
-0.394916 0.114873 6.01557
-0.409232 0.115576 6.0156
-0.423866 0.116294 6.0156
-0.438822 0.117029 6.0156
0.00280684 0.102468 0.129038
-0.00215586 0.102721 0.129128
-0.00724458 0.102982 0.129432
-0.0124621 0.103249 0.129972
-0.0178113 0.103523 0.130774
-0.023295 0.103804 0.131869
-0.0289162 0.104093 0.133278
-0.0346779 0.104389 0.135023
-0.0405832 0.104693 0.137117
-0.0466352 0.105005 0.139569
-0.0528371 0.105326 0.142382
-0.0591922 0.105654 0.145555
-0.0657038 0.105991 0.149087
-0.0723753 0.106336 0.15297
-0.0792102 0.10669 0.157199
-0.086212 0.107054 0.161765
-0.0933843 0.107426 0.166663
-0.100731 0.107808 0.171885
-0.108255 0.108199 0.177426
-0.115961 0.1086 0.183282
-0.123853 0.109011 0.189449
-0.131935 0.109432 0.195926
-0.14021 0.109864 0.202713
-0.148683 0.110306 0.20981
-0.157357 0.110759 0.217221
-0.166238 0.111223 0.22495
-0.17533 0.111698 0.233005
-0.184636 0.112184 0.241393
-0.194162 0.112683 0.250125
-0.203912 0.113193 0.259216
-0.213891 0.113715 0.26868
-0.224102 0.11425 0.278535
-0.234552 0.114798 0.288804
-0.245245 0.115358 0.29952
-0.256185 0.115932 0.310758
-0.267379 0.116519 0.322815
-0.27883 0.117119 0.337225
-0.290544 0.117734 0.362261
-0.302527 0.118363 0.443452
-0.314782 0.119007 0.844362
-0.327317 0.119665 2.79861
-0.340135 0.120338 5.45706
-0.353243 0.121027 5.96345
-0.366646 0.121732 6.01124
-0.380349 0.122453 6.01524
-0.394358 0.12319 6.01557
-0.408679 0.123944 6.0156
-0.423316 0.124715 6.0156
-0.438277 0.125503 6.0156
0.00354377 0.109414 0.137638
-0.00142114 0.109685 0.137714
-0.0065121 0.109963 0.137966
-0.0117319 0.110248 0.138428
-0.0170834 0.110541 0.13913
-0.0225694 0.110842 0.140101
-0.028193 0.111151 0.141367
-0.0339571 0.111467 0.14295
-0.0398648 0.111792 0.144866
-0.0459193 0.112126 0.147127
-0.0521237 0.112468 0.149739
-0.0584813 0.112819 0.152704
-0.0649955 0.113179 0.156022
-0.0716696 0.113548 0.159689
-0.0785071 0.113927 0.163703
-0.0855115 0.114315 0.168057
-0.0926865 0.114713 0.172746
-0.100036 0.115121 0.177765
-0.107563 0.115539 0.183111
-0.115272 0.115968 0.188779
-0.123167 0.116407 0.194768
-0.131251 0.116857 0.201076
-0.139529 0.117318 0.207704
-0.148005 0.117791 0.214652
-0.156683 0.118275 0.221923
-0.165567 0.11877 0.229523
-0.174661 0.119278 0.237457
-0.183971 0.119798 0.245734
-0.1935 0.120331 0.254365
-0.203253 0.120876 0.263361
-0.213235 0.121434 0.272739
-0.22345 0.122005 0.282515
-0.233903 0.12259 0.292711
-0.244599 0.123189 0.303359
-0.255543 0.123802 0.314531
-0.26674 0.124429 0.326518
-0.278194 0.125071 0.340824
-0.289912 0.125728 0.365578
-0.301898 0.1264 0.445624
-0.314158 0.127088 0.841812
-0.326696 0.127791 2.7807
-0.339518 0.128511 5.451
-0.35263 0.129247 5.96279
-0.366037 0.13 6.01119
-0.379744 0.13077 6.01523
-0.393758 0.131558 6.01557
-0.408082 0.132363 6.0156
-0.422725 0.133187 6.0156
-0.43769 0.134029 6.0156
0.00433434 0.116399 0.146282
-0.000632974 0.116687 0.146344
-0.00572636 0.116983 0.146549
-0.0109486 0.117287 0.14694
-0.0163026 0.117599 0.14755
-0.0217912 0.11792 0.148409
-0.0274173 0.118249 0.149544
-0.033184 0.118586 0.150979
-0.0390943 0.118932 0.152733
-0.0451515 0.119287 0.154818
-0.0513585 0.119652 0.157244
-0.0577189 0.120025 0.160016
-0.0642358 0.120409 0.163135
-0.0709127 0.120802 0.166601
-0.077753 0.121205 0.170412
-0.0847604 0.121619 0.174565
-0.0919383 0.122042 0.179056
-0.0992905 0.122477 0.183881
-0.106821 0.122922 0.189039
-0.114533 0.123378 0.194526
-0.12243 0.123846 0.200342
-0.130518 0.124325 0.206484
-0.138799 0.124816 0.212955
-0.147278 0.125319 0.219755
-0.155959 0.125835 0.226887
-0.164846 0.126363 0.234357
-0.173944 0.126903 0.242169
-0.183257 0.127457 0.250333
-0.192789 0.128024 0.258859
-0.202546 0.128604 0.267758
-0.212531 0.129198 0.277045
-0.22275 0.129807 0.286737
-0.233206 0.13043 0.296855
-0.243906 0.131067 0.307429
-0.254854 0.13172 0.31853
-0.266054 0.132388 0.330442
-0.277513 0.133071 0.34464
-0.289234 0.13377 0.369103
-0.301224 0.134486 0.447959
-0.313488 0.135218 0.839196
-0.32603 0.135967 2.76189
-0.338857 0.136733 5.44456
-0.351973 0.137516 5.9621
-0.365384 0.138318 6.01113
-0.379096 0.139138 6.01523
-0.393113 0.139976 6.01557
-0.407443 0.140834 6.0156
-0.42209 0.14171 6.0156
-0.43706 0.142607 6.0156
0.00517948 0.123423 0.154971
0.00020956 0.123729 0.15502
-0.00488646 0.124044 0.155181
-0.0101114 0.124366 0.155508
-0.015468 0.124698 0.156033
-0.0209593 0.125038 0.156789
-0.0265882 0.125387 0.157804
-0.0323577 0.125745 0.159103
-0.0382709 0.126112 0.160707
-0.0443308 0.126489 0.162631
-0.0505408 0.126876 0.164886
-0.0569041 0.127273 0.167478
-0.0634239 0.12768 0.170412
-0.0701038 0.128097 0.17369
-0.0769472 0.128525 0.177311
-0.0839576 0.128964 0.181274
-0.0911386 0.129414 0.185576
-0.0984939 0.129875 0.190217
-0.106027 0.130347 0.195195
-0.113743 0.130832 0.200507
-0.121644 0.131328 0.206154
-0.129734 0.131837 0.212135
-0.138019 0.132358 0.218452
-0.146501 0.132892 0.225106
-0.155186 0.133439 0.2321
-0.164076 0.133999 0.239439
-0.173178 0.134573 0.247129
-0.182494 0.13516 0.255179
-0.19203 0.135762 0.263597
-0.20179 0.136378 0.272396
-0.211779 0.137009 0.28159
-0.222002 0.137654 0.291194
-0.232462 0.138315 0.30123
-0.243166 0.138992 0.311726
-0.254117 0.139684 0.322752
-0.265322 0.140393 0.334586
-0.276784 0.141118 0.348672
-0.28851 0.14186 0.372837
-0.300504 0.142619 0.450462
-0.312772 0.143396 0.83652
-0.325319 0.144191 2.74218
-0.338149 0.145004 5.43772
-0.35127 0.145835 5.96136
-0.364686 0.146686 6.01106
-0.378402 0.147556 6.01522
-0.392425 0.148445 6.01557
-0.406759 0.149355 6.0156
-0.421411 0.150286 6.0156
-0.436387 0.151237 6.0156
0.0060801 0.130486 0.163706
0.00110738 0.13081 0.163743
-0.00399145 0.131143 0.163864
-0.00921923 0.131484 0.16413
-0.0145788 0.131835 0.164577
-0.020073 0.132195 0.165238
-0.0257048 0.132564 0.166143
-0.0314773 0.132943 0.167317
-0.0373934 0.133332 0.168783
-0.0434565 0.133732 0.170558
-0.0496695 0.134141 0.172653
-0.0560359 0.134561 0.175079
-0.062559 0.134992 0.177841
-0.0692421 0.135433 0.180943
-0.0760887 0.135886 0.184385
-0.0831023 0.136351 0.188168
-0.0902867 0.136827 0.192293
-0.0976454 0.137315 0.196758
-0.105182 0.137815 0.201563
-0.112901 0.138328 0.206707
-0.120805 0.138853 0.212191
-0.1289 0.139391 0.218015
-0.137188 0.139943 0.224181
-0.145674 0.140508 0.230691
-0.154362 0.141087 0.237548
-0.163256 0.141679 0.244758
-0.172361 0.142287 0.252326
-0.181682 0.142908 0.26026
-0.191221 0.143545 0.268569
-0.200986 0.144197 0.277266
-0.210978 0.144864 0.286363
-0.221205 0.145548 0.295877
-0.231669 0.146247 0.305827
-0.242377 0.146963 0.316243
-0.253333 0.147696 0.327191
-0.264541 0.148445 0.338945
-0.276008 0.149213 0.352917
-0.287738 0.149998 0.376777
-0.299737 0.150801 0.453133
-0.312009 0.151623 0.833791
-0.32456 0.152464 2.72156
-0.337396 0.153324 5.43047
-0.350521 0.154204 5.96057
-0.363942 0.155104 6.011
-0.377663 0.156024 6.01522
-0.391691 0.156965 6.01557
-0.406031 0.157928 6.0156
-0.420688 0.158912 6.0156
-0.435669 0.159919 6.0156
0.00703712 0.137587 0.172489
0.00206142 0.137929 0.172514
-0.00304043 0.138281 0.172597
-0.00827126 0.138641 0.172808
-0.0136339 0.139011 0.173182
-0.0191312 0.139392 0.173755
-0.0247662 0.139782 0.174557
-0.0305418 0.140182 0.175616
-0.0364612 0.140593 0.176954
-0.0425275 0.141014 0.17859
-0.0487438 0.141446 0.180539
-0.0551136 0.14189 0.18281
-0.06164 0.142344 0.185411
-0.0683265 0.142811 0.188347
-0.0751765 0.143289 0.191622
-0.0821937 0.143779 0.195236
-0.0893816 0.144282 0.199192
-0.0967438 0.144797 0.203489
-0.104284 0.145325 0.208129
-0.112007 0.145866 0.213112
-0.119915 0.146421 0.218438
-0.128013 0.146989 0.22411
-0.136305 0.147571 0.230129
-0.144794 0.148167 0.236498
-0.153486 0.148778 0.243221
-0.162385 0.149404 0.250301