VARIABLES = "X", "Y", "p,Pa" 
ZONE I= 49, J= 149, DATAPACKING=POINT
-0.00243344 0.00315472 92822.1
-0.00738272 0.00316244 92384.8
-0.0124575 0.00317039 92342.2
-0.0176607 0.00317854 92316.2
-0.0229951 0.00318692 92285.9
-0.0284636 0.00319552 92249.7
-0.0340692 0.00320435 92207.1
-0.0398149 0.00321341 92157.9
-0.0457038 0.00322271 92101.6
-0.0517391 0.00323225 92037.9
-0.0579239 0.00324204 91966.5
-0.0642617 0.00325209 91887
-0.0707556 0.00326239 91799
-0.0774091 0.00327296 91702
-0.0842256 0.00328379 91595.7
-0.0912088 0.0032949 91479.5
-0.0983623 0.0033063 91353
-0.10569 0.00331798 91215.7
-0.113195 0.00332995 91067.1
-0.120881 0.00334222 90906.6
-0.128753 0.0033548 90733.8
-0.136814 0.00336769 90547.9
-0.145068 0.0033809 90348.5
-0.15352 0.00339443 90134.8
-0.162174 0.00340829 89906.1
-0.171034 0.0034225 89661.6
-0.180103 0.00343704 89400.4
-0.189388 0.00345194 89121.4
-0.198891 0.0034672 88823.6
-0.208619 0.00348283 88505.8
-0.218574 0.00349883 88166.7
-0.228763 0.00351521 87805.2
-0.239189 0.00353198 87420.5
-0.249857 0.00354914 87011.2
-0.260774 0.00356671 86572.9
-0.271942 0.0035847 86074.2
-0.283368 0.0036031 85323.4
-0.295057 0.00362194 83272.1
-0.307013 0.00364121 74834.8
-0.319242 0.00366093 44636.1
-0.331749 0.0036811 8172.27
-0.34454 0.00370174 2377.57
-0.357619 0.00372286 1970.27
-0.370992 0.00374445 1934.5
-0.384665 0.00376654 1931.31
-0.398643 0.00378914 1931.03
-0.41293 0.00381225 1931
-0.427533 0.00383588 1931
-0.442457 0.00386005 1931
-0.00239145 0.00948519 93373.2
-0.00734078 0.00950842 92932.7
-0.0124157 0.00953231 92886.2
-0.0176189 0.00955685 92855.9
-0.0229534 0.00958204 92820.8
-0.028422 0.0096079 92779.6
-0.0340276 0.00963445 92731.9
-0.0397735 0.0096617 92677.5
-0.0456625 0.00968966 92616.1
-0.0516979 0.00971835 92547.4
-0.0578829 0.00974779 92471
-0.0642207 0.00977799 92386.7
-0.0707147 0.00980896 92294
-0.0773684 0.00984073 92192.5
-0.0841851 0.00987332 92081.8
-0.0911684 0.00990673 91961.5
-0.0983219 0.00994098 91831.1
-0.105649 0.0099761 91690.1
-0.113154 0.0100121 91538
-0.120841 0.010049 91374.2
-0.128713 0.0100868 91198.3
-0.136774 0.0101256 91009.7
-0.145029 0.0101653 90807.7
-0.153481 0.010206 90591.7
-0.162135 0.0102477 90361
-0.170995 0.0102904 90114.7
-0.180065 0.0103341 89851.9
-0.189349 0.0103789 89571.7
-0.198853 0.0104248 89272.9
-0.20858 0.0104718 88954.2
-0.218536 0.0105199 88614.4
-0.228724 0.0105691 88252.2
-0.239151 0.0106196 87866.2
-0.24982 0.0106712 87454.4
-0.260736 0.010724 87010.2
-0.271905 0.0107781 86497.8
-0.283331 0.0108334 85717.2
-0.29502 0.01089 83607.6
-0.306976 0.010948 75091.4
-0.319205 0.0110073 44836.2
-0.331713 0.0110679 8231.93
-0.344503 0.01113 2380.4
-0.357583 0.0111935 1970.49
-0.370957 0.0112584 1934.52
-0.38463 0.0113249 1931.31
-0.398608 0.0113928 1931.03
-0.412896 0.0114623 1931
-0.427499 0.0115333 1931
-0.442422 0.011606 1931
-0.00230942 0.0158577 93390
-0.00725886 0.0158966 92951.1
-0.0123339 0.0159365 92904.9
-0.0175373 0.0159775 92874.8
-0.0228719 0.0160197 92839.9
-0.0283407 0.0160629 92798.8
-0.0339466 0.0161073 92751.2
-0.0396926 0.0161529 92696.9
-0.0455819 0.0161996 92635.5
-0.0516175 0.0162476 92566.8
-0.0578027 0.0162968 92490.4
-0.0641408 0.0163473 92406.1
-0.0706351 0.0163991 92313.4
-0.077289 0.0164522 92211.9
-0.084106 0.0165067 92101.2
-0.0910895 0.0165626 91980.8
-0.0982434 0.0166198 91850.4
-0.105571 0.0166785 91709.3
-0.113077 0.0167387 91557.2
-0.120763 0.0168004 91393.5
-0.128636 0.0168637 91217.6
-0.136697 0.0169285 91028.9
-0.144952 0.0169949 90826.9
-0.153405 0.0170629 90610.9
-0.162059 0.0171326 90380.1
-0.170919 0.017204 90133.8
-0.179989 0.0172771 89870.9
-0.189274 0.017352 89590.5
-0.198778 0.0174288 89291.4
-0.208506 0.0175073 88972.3
-0.218462 0.0175877 88631.9
-0.228651 0.0176701 88268.8
-0.239077 0.0177544 87881.4
-0.249747 0.0178407 87467.4
-0.260663 0.017929 87019.6
-0.271832 0.0180194 86501.2
-0.283259 0.018112 85711
-0.294948 0.0182066 83594.1
-0.306905 0.0183035 75112.1
-0.319135 0.0184027 44972
-0.331642 0.0185041 8291.42
-0.344434 0.0186078 2383.65
-0.357514 0.018714 1970.76
-0.370888 0.0188226 1934.54
-0.384561 0.0189336 1931.32
-0.39854 0.0190472 1931.03
-0.412828 0.0191634 1931
-0.427432 0.0192822 1931
-0.442357 0.0194037 1931
-0.00218649 0.0222722 93367.5
-0.00713611 0.0223268 92930.6
-0.0122114 0.0223829 92884.9
-0.017415 0.0224405 92855.3
-0.0227499 0.0224997 92820.8
-0.028219 0.0225605 92780.2
-0.0338252 0.0226228 92733.1
-0.0395716 0.0226868 92679.3
-0.0454612 0.0227525 92618.4
-0.0514972 0.0228199 92550.1
-0.0576828 0.022889 92474.2
-0.0640212 0.02296 92390.2
-0.0705159 0.0230327 92297.9
-0.0771702 0.0231073 92196.8
-0.0839876 0.0231839 92086.5
-0.0909716 0.0232623 91966.5
-0.0981258 0.0233428 91836.4
-0.105454 0.0234253 91695.7
-0.11296 0.0235098 91543.9
-0.120647 0.0235965 91380.5
-0.12852 0.0236853 91204.9
-0.136582 0.0237763 91016.5
-0.144837 0.0238696 90814.8
-0.15329 0.0239652 90599
-0.161945 0.0240631 90368.5
-0.170805 0.0241634 90122.3
-0.179876 0.0242661 89859.6
-0.189162 0.0243713 89579.2
-0.198666 0.0244791 89280.1
-0.208394 0.0245894 88960.9
-0.218351 0.0247024 88620.3
-0.22854 0.0248181 88256.7
-0.238968 0.0249365 87868.5
-0.249637 0.0250577 87453.2
-0.260555 0.0251818 87003.1
-0.271724 0.0253088 86480.4
-0.283152 0.0254387 85684.1
-0.294841 0.0255717 83566.6
-0.306799 0.0257078 75127.5
-0.319029 0.0258471 45105.9
-0.331537 0.0259896 8351.1
-0.344329 0.0261353 2387.11
-0.35741 0.0262844 1971.06
-0.370785 0.0264369 1934.57
-0.384459 0.0265929 1931.32
-0.398438 0.0267525 1931.03
-0.412728 0.0269156 1931
-0.427333 0.0270825 1931
-0.442259 0.0272532 1931
-0.00202176 0.0287285 93334.2
-0.00697167 0.028799 92899.5
-0.0120472 0.0288714 92854.5
-0.0172512 0.0289457 92825.4
-0.0225866 0.0290221 92791.5
-0.028056 0.0291005 92751.5
-0.0336627 0.0291809 92705
-0.0394095 0.0292635 92651.8
-0.0452996 0.0293482 92591.5
-0.0513361 0.0294352 92523.8
-0.0575222 0.0295244 92448.4
-0.0638611 0.0296159 92365.1
-0.0703563 0.0297097 92273.3
-0.0770112 0.029806 92172.7
-0.0838291 0.0299047 92062.9
-0.0908137 0.030006 91943.5
-0.0979685 0.0301098 91813.9
-0.105297 0.0302162 91673.7
-0.112804 0.0303253 91522.4
-0.120492 0.0304371 91359.5
-0.128365 0.0305517 91184.4
-0.136428 0.0306691 90996.5
-0.144684 0.0307894 90795.2
-0.153137 0.0309127 90579.9
-0.161793 0.0310391 90349.8
-0.170654 0.0311684 90104
-0.179725 0.031301 89841.7
-0.189011 0.0314367 89561.7
-0.198517 0.0315757 89262.9
-0.208246 0.0317181 88944
-0.218203 0.0318638 88603.5
-0.228393 0.0320131 88240
-0.238821 0.0321658 87851.6
-0.249492 0.0323222 87435.6
-0.26041 0.0324823 86983.9
-0.27158 0.0326461 86458.1
-0.283008 0.0328138 85657.6
-0.294699 0.0329854 83542.9
-0.306657 0.0331609 75147.9
-0.318888 0.0333406 45237.8
-0.331397 0.0335244 8410.23
-0.34419 0.0337124 2390.64
-0.357271 0.0339047 1971.36
-0.370647 0.0341015 1934.6
-0.384323 0.0343027 1931.32
-0.398303 0.0345086 1931.03
-0.412594 0.0347191 1931
-0.4272 0.0349344 1931
-0.442128 0.0351546 1931
-0.00181435 0.0352266 93291.7
-0.00676466 0.035313 92859.4
-0.0118407 0.0354018 92815.1
-0.0170451 0.035493 92786.7
-0.022381 0.0355867 92753.5
-0.027851 0.0356828 92714.2
-0.0334582 0.0357815 92668.4
-0.0392056 0.0358828 92615.9
-0.0450963 0.0359867 92556.3
-0.0511334 0.0360933 92489.4
-0.0573201 0.0362027 92414.7
-0.0636597 0.036315 92332.1
-0.0701556 0.0364301 92241
-0.0768111 0.0365482 92141.1
-0.0836298 0.0366693 92032
-0.0906151 0.0367934 91913.3
-0.0977706 0.0369208 91784.4
-0.1051 0.0370513 91644.9
-0.112607 0.0371851 91494.3
-0.120296 0.0373222 91332.1
-0.12817 0.0374627 91157.6
-0.136234 0.0376068 90970.4
-0.144491 0.0377544 90769.9
-0.152945 0.0379056 90555.2
-0.161601 0.0380605 90325.8
-0.170463 0.0382192 90080.7
-0.179535 0.0383817 89819
-0.188822 0.0385482 89539.7
-0.198328 0.0387187 89241.5
-0.208058 0.0388933 88923.2
-0.218016 0.039072 88583.3
-0.228208 0.0392551 88220.2
-0.238637 0.0394424 87832
-0.249308 0.0396342 87415.7
-0.260227 0.0398305 86962.9
-0.271399 0.0400315 86434.9
-0.282827 0.0402371 85632.2
-0.294519 0.0404475 83523.1
-0.306478 0.0406629 75172.4
-0.318711 0.0408832 45367.8
-0.331221 0.0411086 8469.08
-0.344015 0.0413392 2394.19
-0.357097 0.0415751 1971.67
-0.370474 0.0418164 1934.62
-0.384151 0.0420632 1931.32
-0.398133 0.0423156 1931.03
-0.412425 0.0425738 1931
-0.427033 0.0428378 1931
-0.441963 0.0431079 1931
-0.00156336 0.0417662 93239.8
-0.00651419 0.0418688 92810.3
-0.0115908 0.0419741 92766.9
-0.0167958 0.0420823 92739.3
-0.0221323 0.0421934 92706.9
-0.027603 0.0423074 92668.4
-0.0332109 0.0424245 92623.4
-0.038959 0.0425446 92571.7
-0.0448504 0.0426678 92513
-0.0508883 0.0427943 92446.9
-0.0570758 0.0429241 92373.1
-0.0634162 0.0430572 92291.3
-0.0699129 0.0431937 92201.1
-0.0765693 0.0433338 92102.1
-0.0833888 0.0434774 91993.9
-0.090375 0.0436246 91876
-0.0975314 0.0437756 91748
-0.104862 0.0439304 91609.4
-0.11237 0.0440891 91459.7
-0.12006 0.0442517 91298.3
-0.127935 0.0444184 91124.8
-0.135999 0.0445892 90938.5
-0.144257 0.0447643 90738.8
-0.152712 0.0449436 90525.1
-0.161369 0.0451273 90296.5
-0.170233 0.0453155 90052.4
-0.179306 0.0455083 89791.6
-0.188594 0.0457057 89513.2
-0.198101 0.0459079 89216
-0.207832 0.046115 88898.6
-0.217791 0.046327 88559.5
-0.227984 0.046544 88197.1
-0.238414 0.0467662 87809.4
-0.249086 0.0469937 87393.2
-0.260007 0.0472265 86939.8
-0.271179 0.0474648 86410.4
-0.282609 0.0477087 85607.2
-0.294302 0.0479582 83506.1
-0.306263 0.0482136 75199.9
-0.318496 0.0484749 45497.6
-0.331008 0.0487422 8528.47
-0.343803 0.0490156 2397.79
-0.356887 0.0492954 1971.99
-0.370266 0.0495815 1934.65
-0.383944 0.0498742 1931.33
-0.397927 0.0501736 1931.03
-0.412221 0.0504798 1931
-0.426831 0.0507929 1931
-0.441764 0.0511132 1931
-0.00126787 0.0483474 93178.6
-0.00621937 0.0484661 92752.1
-0.0112966 0.0485881 92709.7
-0.0165025 0.0487134 92682.9
-0.0218397 0.0488421 92651.5
-0.0273112 0.0489741 92614
-0.0329199 0.0491096 92570
-0.0386689 0.0492487 92519.3
-0.0445612 0.0493915 92461.5
-0.0506 0.0495379 92396.4
-0.0567884 0.0496882 92323.7
-0.0631298 0.0498423 92242.9
-0.0696275 0.0500004 92153.7
-0.0762849 0.0501626 92055.7
-0.0831054 0.0503289 91948.6
-0.0900926 0.0504994 91831.8
-0.0972501 0.0506743 91704.8
-0.104582 0.0508535 91567.3
-0.112091 0.0510373 91418.6
-0.119782 0.0512256 91258.4
-0.127658 0.0514186 91085.9
-0.135723 0.0516164 90900.7
-0.143982 0.0518191 90702.2
-0.152439 0.0520268 90489.6
-0.161097 0.0522395 90262.2
-0.169961 0.0524574 90019.2
-0.179036 0.0526806 89759.6
-0.188325 0.0529093 89482.4
-0.197834 0.0531434 89186.3
-0.207566 0.0533831 88870
-0.217527 0.0536286 88532
-0.22772 0.0538799 88170.6
-0.238152 0.0541372 87783.6
-0.248826 0.0544006 87367.7
-0.259747 0.0546702 86914.1
-0.270921 0.0549461 86384.3
-0.282353 0.0552285 85582
-0.294047 0.0555174 83490.6
-0.306009 0.0558131 75229.4
-0.318244 0.0561156 45629.3
-0.330757 0.0564251 8589.46
-0.343554 0.0567418 2401.48
-0.35664 0.0570657 1972.32
-0.37002 0.057397 1934.68
-0.3837 0.0577359 1931.33
-0.397685 0.0580825 1931.03
-0.411981 0.0584371 1931
-0.426594 0.0587996 1931
-0.441529 0.0591705 1931
-0.000926992 0.0549698 93107.8
-0.0058793 0.0551049 92684.7
-0.0109574 0.0552437 92643.4
-0.0161641 0.0553862 92617.7
-0.0215023 0.0555326 92587.3
-0.0269747 0.0556828 92550.9
-0.0325844 0.0558369 92508
-0.0383344 0.0559951 92458.4
-0.0442277 0.0561575 92401.8
-0.0502676 0.0563241 92337.9
-0.0564571 0.056495 92266.3
-0.0627996 0.0566703 92186.7
-0.0692984 0.0568502 92098.7
-0.075957 0.0570347 92001.9
-0.0827787 0.0572238 91896
-0.0897671 0.0574178 91780.4
-0.0969258 0.0576167 91654.7
-0.104259 0.0578205 91518.4
-0.111769 0.0580295 91371
-0.119461 0.0582437 91212.1
-0.127339 0.0584633 91040.9
-0.135405 0.0586883 90857.1
-0.143666 0.0589188 90659.8
-0.152124 0.059155 90448.6
-0.160783 0.059397 90222.6
-0.169649 0.0596448 89981
-0.178725 0.0598987 89722.8
-0.188016 0.0601587 89446.9
-0.197526 0.060425 89152.2
-0.207259 0.0606977 88837.3
-0.217221 0.0609769 88500.6
-0.227417 0.0612628 88140.2
-0.237849 0.0615554 87754.1
-0.248525 0.0618549 87338.8
-0.259448 0.0621615 86885.4
-0.270624 0.0624754 86355.9
-0.282057 0.0627965 85555.7
-0.293753 0.0631251 83475.4
-0.305717 0.0634614 75260.3
-0.317954 0.0638055 45764.8
-0.330469 0.0641575 8653.04
-0.343267 0.0645176 2405.33
-0.356355 0.064886 1972.65
-0.369737 0.0652628 1934.71
-0.383419 0.0656483 1931.33
-0.397406 0.0660425 1931.03
-0.411704 0.0664457 1931
-0.426319 0.066858 1931
-0.441257 0.0672797 1931
-0.000539809 0.0616335 93027.5
-0.00549309 0.061785 92607.9
-0.0105722 0.0619407 92567.9
-0.01578 0.0621006 92543.5
-0.0211192 0.0622647 92514.3
-0.0265927 0.0624332 92479.1
-0.0322035 0.0626062 92437.5
-0.0379547 0.0627836 92389.1
-0.0438492 0.0629658 92333.8
-0.0498903 0.0631527 92271.2
-0.0560811 0.0633444 92200.9
-0.0624249 0.0635411 92122.7
-0.068925 0.0637428 92036.1
-0.0755848 0.0639497 91940.7
-0.0824079 0.0641619 91836.1
-0.0893977 0.0643795 91722
-0.0965578 0.0646026 91597.7
-0.103892 0.0648313 91462.9
-0.111404 0.0650657 91316.9
-0.119097 0.065306 91159.5
-0.126976 0.0655523 90989.8
-0.135045 0.0658047 90807.5
-0.143307 0.0660632 90611.8
-0.151766 0.0663282 90402.1
-0.160427 0.0665996 90177.7
-0.169295 0.0668776 89937.6
-0.178372 0.0671624 89681
-0.187664 0.0674541 89406.7
-0.197176 0.0677528 89113.6
-0.206911 0.0680586 88800.2
-0.216875 0.0683718 88464.8
-0.227072 0.0686924 88105.8
-0.237507 0.0690206 87720.8
-0.248184 0.0693566 87306.3
-0.259109 0.0697005 86853.6
-0.270287 0.0700525 86325.1
-0.281722 0.0704127 85527.9
-0.29342 0.0707813 83459.6
-0.305385 0.0711585 75292.1
-0.317624 0.0715444 45905.9
-0.330141 0.0719392 8720.11
-0.342942 0.0723432 2409.38
-0.356031 0.0727564 1973.01
-0.369416 0.073179 1934.74
-0.3831 0.0736113 1931.33
-0.397089 0.0740534 1931.03
-0.41139 0.0745056 1931
-0.426007 0.0749681 1931
-0.440947 0.075441 1931
-0.00010541 0.0683381 92937.5
-0.00505982 0.0685062 92521.9
-0.0101401 0.0686789 92483.3
-0.015349 0.0688563 92460.2
-0.0206895 0.0690384 92432.4
-0.0261643 0.0692253 92398.5
-0.0317764 0.0694172 92358.3
-0.0375289 0.0696141 92311.4
-0.0434248 0.0698162 92257.5
-0.0494673 0.0700235 92196.4
-0.0556595 0.0702362 92127.6
-0.0620047 0.0704544 92050.8
-0.0685063 0.0706782 91965.8
-0.0751676 0.0709078 91871.9
-0.0819922 0.0711432 91768.9
-0.0889835 0.0713845 91656.4
-0.0961452 0.071632 91533.7
-0.103481 0.0718857 91400.5
-0.110994 0.0721458 91256.3
-0.11869 0.0724124 91100.4
-0.12657 0.0726856 90932.5
-0.13464 0.0729655 90751.9
-0.142904 0.0732524 90557.9
-0.151365 0.0735463 90350
-0.160028 0.0738473 90127.3
-0.168897 0.0741558 89889
-0.177977 0.0744717 89634.1
-0.187271 0.0747952 89361.6
-0.196784 0.0751265 89070.2
-0.206521 0.0754658 88758.4
-0.216487 0.0758132 88424.6
-0.226686 0.0761688 88067
-0.237122 0.0765329 87683.3
-0.247802 0.0769056 87270
-0.258729 0.0772871 86818.4
-0.269908 0.0776775 86291.4
-0.281346 0.0780771 85497.9
-0.293046 0.078486 83442.4
-0.305014 0.0789043 75324.6
-0.317254 0.0793324 46053.9
-0.329774 0.0797703 8791.44
-0.342577 0.0802184 2413.68
-0.355669 0.0806767 1973.39
-0.369056 0.0811455 1934.78
-0.382742 0.081625 1931.34
-0.396734 0.0821154 1931.03
-0.411038 0.082617 1931
-0.425657 0.0831299 1931
-0.440599 0.0836545 1931
0.000377117 0.0750835 92837.8
-0.00457859 0.0752683 92426.4
-0.00966021 0.0754582 92389.4
-0.0148705 0.0756532 92367.8
-0.0202123 0.0758534 92341.4
-0.0256886 0.0760589 92309.1
-0.0313022 0.0762699 92270.4
-0.0370562 0.0764864 92225.1
-0.0429536 0.0767085 92172.8
-0.0489976 0.0769364 92113.3
-0.0551914 0.0771703 92046.2
-0.0615382 0.0774102 91971.1
-0.0680414 0.0776562 91887.7
-0.0747044 0.0779086 91795.6
-0.0815307 0.0781674 91694.4
-0.0885237 0.0784327 91583.6
-0.0956872 0.0787048 91462.7
-0.103025 0.0789837 91331.3
-0.11054 0.0792696 91188.9
-0.118237 0.0795626 91034.9
-0.126119 0.079863 90868.9
-0.134191 0.0801707 90690.1
-0.142457 0.080486 90498.1
-0.15092 0.0808091 90292
-0.159585 0.0811401 90071.3
-0.168456 0.0814791 89834.9
-0.177537 0.0818264 89582
-0.186834 0.0821821 89311.3
-0.196349 0.0825463 89021.8
-0.206088 0.0829192 88711.8
-0.216056 0.0833011 88379.8
-0.226257 0.083692 88023.8
-0.236696 0.0840922 87641.6
-0.247378 0.0845019 87229.8
-0.258307 0.0849212 86779.6
-0.269489 0.0853504 86254.6
-0.280928 0.0857896 85465.3
-0.292631 0.086239 83423.3
-0.304601 0.0866989 75357.8
-0.316844 0.0871694 46210
-0.329366 0.0876508 8867.67
-0.342172 0.0881432 2418.26
-0.355267 0.088647 1973.79
-0.368656 0.0891623 1934.81
-0.382345 0.0896893 1931.34
-0.39634 0.0902284 1931.03
-0.410646 0.0907796 1931
-0.425269 0.0913434 1931
-0.440214 0.09192 1931
0.000908689 0.0818694 92728.3
-0.0040485 0.0820711 92321.4
-0.00913162 0.0822783 92286.2
-0.0143435 0.0824911 92266.1
-0.0196869 0.0827096 92241.5
-0.0251647 0.0829338 92210.8
-0.0307799 0.083164 92173.8
-0.0365356 0.0834002 92130.2
-0.0424347 0.0836426 92079.7
-0.0484804 0.0838913 92022
-0.054676 0.0841464 91956.7
-0.0610246 0.0844082 91883.4
-0.0675296 0.0846767 91801.9
-0.0741945 0.084952 91711.7
-0.0810226 0.0852344 91612.3
-0.0880176 0.0855239 91503.5
-0.0951829 0.0858207 91384.6
-0.102522 0.086125 91255.2
-0.11004 0.086437 91114.7
-0.117739 0.0867567 90962.8
-0.125623 0.0870844 90798.8
-0.133697 0.0874201 90622.1
-0.141965 0.0877642 90432.1
-0.15043 0.0881166 90228.2
-0.159097 0.0884777 90009.5
-0.16797 0.0888476 89775.2
-0.177054 0.0892265 89524.4
-0.186352 0.0896145 89255.8
-0.19587 0.0900119 88968.2
-0.205612 0.0904187 88660.2
-0.215582 0.0908353 88330.1
-0.225785 0.0912618 87976
-0.236227 0.0916984 87595.5
-0.246911 0.0921454 87185.4
-0.257842 0.0926028 86737.1
-0.269027 0.093071 86214.4
-0.280469 0.0935501 85429.7
-0.292174 0.0940404 83402
-0.304147 0.094542 75391.6
-0.316393 0.0950553 46374.8
-0.328917 0.0955805 8949.32
-0.341726 0.0961177 2423.16
-0.354824 0.0966672 1974.22
-0.368216 0.0972293 1934.85
-0.381908 0.0978043 1931.34
-0.395906 0.0983923 1931.03
-0.410216 0.0989937 1931
-0.424842 0.0996087 1931
-0.43979 0.100238 1931
0.00149022 0.0886957 92609
-0.00346862 0.0889144 92206.9
-0.00855342 0.0891391 92173.5
-0.013767 0.0893698 92155.2
-0.0191121 0.0896066 92132.4
-0.0245917 0.0898498 92103.5
-0.0302088 0.0900993 92068.4
-0.0359663 0.0903554 92026.7
-0.0418673 0.0906182 91978.1
-0.0479149 0.0908879 91922.3
-0.0541124 0.0911645 91858.9
-0.060463 0.0914483 91787.7
-0.06697 0.0917394 91708.2
-0.0736369 0.0920379 91620
-0.0804671 0.092344 91522.8
-0.0874641 0.0926579 91416
-0.0946316 0.0929797 91299.2
-0.101973 0.0933096 91171.9
-0.109493 0.0936478 91033.7
-0.117194 0.0939944 90884
-0.125081 0.0943496 90722.2
-0.133157 0.0947136 90547.7
-0.141427 0.0950866 90360
-0.149894 0.0954687 90158.3
-0.158564 0.0958602 89941.8
-0.167439 0.0962611 89709.8
-0.176525 0.0966718 89461.2
-0.185826 0.0970925 89194.8
-0.195347 0.0975232 88909.4
-0.205091 0.0979642 88603.6
-0.215063 0.0984158 88275.6
-0.225269 0.0988782 87923.5
-0.235713 0.0993514 87545
-0.2464 0.0998359 87136.9
-0.257334 0.100332 86690.7
-0.268522 0.100839 86170.7
-0.279966 0.101359 85391
-0.291674 0.10189 83378.2
-0.30365 0.102434 75425.9
-0.315899 0.10299 46548.8
-0.328427 0.103559 9036.82
-0.341238 0.104142 2428.4
-0.354339 0.104737 1974.68
-0.367735 0.105347 1934.89
-0.38143 0.10597 1931.35
-0.395432 0.106607 1931.03
-0.409745 0.107259 1931
-0.424374 0.107926 1931
-0.439326 0.108607 1931
0.00212263 0.0955621 92479.8
-0.00283804 0.0957979 92082.7
-0.00792471 0.0960402 92051.4
-0.0131402 0.096289 92035
-0.0184872 0.0965444 92014
-0.0239688 0.0968066 91987.2
-0.0295878 0.0970757 91954
-0.0353474 0.0973518 91914.4
-0.0412504 0.0976352 91867.8
-0.0473001 0.097926 91814.1
-0.0534997 0.0982243 91752.9
-0.0598525 0.0985303 91683.8
-0.0663617 0.0988441 91606.5
-0.0730308 0.099166 91520.5
-0.0798632 0.0994961 91425.5
-0.0868625 0.0998345 91321
-0.0940323 0.100182 91206.5
-0.101376 0.100537 91081.6
-0.108898 0.100902 90945.7
-0.116602 0.101276 90798.3
-0.124491 0.101659 90638.9
-0.13257 0.102051 90466.8
-0.140842 0.102453 90281.5
-0.149312 0.102865 90082.2
-0.157984 0.103287 89868.1
-0.166862 0.10372 89638.5
-0.175951 0.104162 89392.3
-0.185255 0.104616 89128.3
-0.194778 0.10508 88845.3
-0.204524 0.105556 88541.7
-0.2145 0.106043 88216
-0.224709 0.106541 87866.2
-0.235155 0.107051 87490
-0.245845 0.107573 87084.1
-0.256782 0.108108 86640.4
-0.267973 0.108655 86123.4
-0.27942 0.109215 85349
-0.291131 0.109788 83351.7
-0.30311 0.110374 75460.7
-0.315363 0.110974 46732.6
-0.327894 0.111588 9130.56
-0.340708 0.112215 2434
-0.353813 0.112857 1975.17
-0.367212 0.113514 1934.94
-0.380911 0.114186 1931.35
-0.394916 0.114873 1931.03
-0.409232 0.115576 1931
-0.423866 0.116294 1931
-0.438822 0.117029 1931
0.00280684 0.102468 92340.6
-0.00215586 0.102721 91948.7
-0.00724458 0.102982 91919.6
-0.0124621 0.103249 91905.3
-0.0178113 0.103523 91886.4
-0.023295 0.103804 91861.7
-0.0289162 0.104093 91830.7
-0.0346779 0.104389 91793.2
-0.0405832 0.104693 91748.9
-0.0466352 0.105005 91697.4
-0.0528371 0.105326 91638.5
-0.0591922 0.105654 91571.7
-0.0657038 0.105991 91496.7
-0.0723753 0.106336 91413.1
-0.0792102 0.10669 91320.5
-0.086212 0.107054 91218.4
-0.0933843 0.107426 91106.4
-0.100731 0.107808 90983.9
-0.108255 0.108199 90850.5
-0.115961 0.1086 90705.7
-0.123853 0.109011 90548.8
-0.131935 0.109432 90379.2
-0.14021 0.109864 90196.5
-0.148683 0.110306 89999.7
-0.157357 0.110759 89788.3
-0.166238 0.111223 89561.2
-0.17533 0.111698 89317.6
-0.184636 0.112184 89056.1
-0.194162 0.112683 88775.6
-0.203912 0.113193 88474.6
-0.213891 0.113715 88151.4
-0.224102 0.11425 87804
-0.234552 0.114798 87430.3
-0.245245 0.115358 87026.9
-0.256185 0.115932 86585.9
-0.267379 0.116519 86072.2
-0.27883 0.117119 85303.3
-0.290544 0.117734 83322.5
-0.302527 0.118363 75496
-0.314782 0.119007 46926.2
-0.327317 0.119665 9230.91
-0.340135 0.120338 2440
-0.353243 0.121027 1975.7
-0.366646 0.121732 1934.99
-0.380349 0.122453 1931.36
-0.394358 0.12319 1931.03
-0.408679 0.123944 1931
-0.423316 0.124715 1931
-0.438277 0.125503 1931
0.00354377 0.109414 92191.3
-0.00142114 0.109685 91805
-0.0065121 0.109963 91778.2
-0.0117319 0.110248 91766.1
-0.0170834 0.110541 91749.4
-0.0225694 0.110842 91726.9
-0.028193 0.111151 91698.3
-0.0339571 0.111467 91663.1
-0.0398648 0.111792 91621.2
-0.0459193 0.112126 91572.1
-0.0521237 0.112468 91515.6
-0.0584813 0.112819 91451.3
-0.0649955 0.113179 91378.8
-0.0716696 0.113548 91297.7
-0.0785071 0.113927 91207.7
-0.0855115 0.114315 91108.2
-0.0926865 0.114713 90998.7
-0.100036 0.115121 90878.9
-0.107563 0.115539 90748.2
-0.115272 0.115968 90606
-0.123167 0.116407 90451.8
-0.131251 0.116857 90284.9
-0.139529 0.117318 90104.9
-0.148005 0.117791 89910.9
-0.156683 0.118275 89702.2
-0.165567 0.11877 89477.9
-0.174661 0.119278 89236.9
-0.183971 0.119798 88978.2
-0.1935 0.120331 88700.4
-0.203253 0.120876 88402.1
-0.213235 0.121434 88081.5
-0.22345 0.122005 87736.9
-0.233903 0.12259 87365.9
-0.244599 0.123189 86965.3
-0.255543 0.123802 86527.2
-0.26674 0.124429 86017
-0.278194 0.125071 85254.1
-0.289912 0.125728 83290.4
-0.301898 0.1264 75531.8
-0.314158 0.127088 47129.9
-0.326696 0.127791 9338.25
-0.339518 0.128511 2446.4
-0.35263 0.129247 1976.26
-0.366037 0.13 1935.04
-0.379744 0.13077 1931.36
-0.393758 0.131558 1931.03
-0.408082 0.132363 1931
-0.422725 0.133187 1931
-0.43769 0.134029 1931
0.00433434 0.116399 92031.8
-0.000632974 0.116687 91651.3
-0.00572636 0.116983 91627
-0.0109486 0.117287 91617.2
-0.0163026 0.117599 91602.9
-0.0217912 0.11792 91582.9
-0.0274173 0.118249 91556.7
-0.033184 0.118586 91524
-0.0390943 0.118932 91484.6
-0.0451515 0.119287 91438
-0.0513585 0.119652 91384.1
-0.0577189 0.120025 91322.4
-0.0642358 0.120409 91252.6
-0.0709127 0.120802 91174.2
-0.077753 0.121205 91086.9
-0.0847604 0.121619 90990.1
-0.0919383 0.122042 90883.4
-0.0992905 0.122477 90766.4
-0.106821 0.122922 90638.5
-0.114533 0.123378 90499.1
-0.12243 0.123846 90347.7
-0.130518 0.124325 90183.8
-0.138799 0.124816 90006.6
-0.147278 0.125319 89815.5
-0.155959 0.125835 89609.7
-0.164846 0.126363 89388.3
-0.173944 0.126903 89150.2
-0.183257 0.127457 88894.4
-0.192789 0.128024 88619.6
-0.202546 0.128604 88324.1
-0.212531 0.129198 88006.5
-0.22275 0.129807 87664.7
-0.233206 0.13043 87296.7
-0.243906 0.131067 86899.2
-0.254854 0.13172 86464.3
-0.266054 0.132388 85957.9
-0.277513 0.133071 85201.1
-0.289234 0.13377 83255.3
-0.301224 0.134486 75568
-0.313488 0.135218 47344
-0.32603 0.135967 9452.93
-0.338857 0.136733 2453.23
-0.351973 0.137516 1976.86
-0.365384 0.138318 1935.09
-0.379096 0.139138 1931.36
-0.393113 0.139976 1931.03
-0.407443 0.140834 1931
-0.42209 0.14171 1931
-0.43706 0.142607 1931
0.00517948 0.123423 91862.1
0.00020956 0.123729 91487.5
-0.00488646 0.124044 91465.9
-0.0101114 0.124366 91458.6
-0.015468 0.124698 91446.9
-0.0209593 0.125038 91429.4
-0.0265882 0.125387 91405.7
-0.0323577 0.125745 91375.7
-0.0382709 0.126112 91338.9
-0.0443308 0.126489 91295.1
-0.0505408 0.126876 91244
-0.0569041 0.127273 91185
-0.0634239 0.12768 91118
-0.0701038 0.128097 91042.5
-0.0769472 0.128525 90958
-0.0839576 0.128964 90864.1
-0.0911386 0.129414 90760.4
-0.0984939 0.129875 90646.3
-0.106027 0.130347 90521.3
-0.113743 0.130832 90384.9
-0.121644 0.131328 90236.6
-0.129734 0.131837 90075.7
-0.138019 0.132358 89901.5
-0.146501 0.132892 89713.5
-0.155186 0.133439 89510.7
-0.164076 0.133999 89292.4
-0.173178 0.134573 89057.4
-0.182494 0.13516 88804.7
-0.19203 0.135762 88533
-0.20179 0.136378 88240.6
-0.211779 0.137009 87926.1
-0.222002 0.137654 87587.5
-0.232462 0.138315 87222.7
-0.243166 0.138992 86828.4
-0.254117 0.139684 86396.9
-0.265322 0.140393 85894.5
-0.276784 0.141118 85144.2
-0.28851 0.14186 83217.2
-0.300504 0.142619 75604.6
-0.312772 0.143396 47568.3
-0.325319 0.144191 9575.29
-0.338149 0.145004 2460.52
-0.35127 0.145835 1977.5
-0.364686 0.146686 1935.15
-0.378402 0.147556 1931.37
-0.392425 0.148445 1931.03
-0.406759 0.149355 1931
-0.421411 0.150286 1931
-0.436387 0.151237 1931
0.0060801 0.130486 91681.9
0.00110738 0.13081 91313.7
-0.00399145 0.131143 91294.8
-0.00921923 0.131484 91290.2
-0.0145788 0.131835 91281.1
-0.020073 0.132195 91266.3
-0.0257048 0.132564 91245.4
-0.0314773 0.132943 91218.2
-0.0373934 0.133332 91184.2
-0.0434565 0.133732 91143.3
-0.0496695 0.134141 91095
-0.0560359 0.134561 91039
-0.062559 0.134992 90974.9
-0.0692421 0.135433 90902.4
-0.0760887 0.135886 90820.9
-0.0831023 0.136351 90730.1
-0.0902867 0.136827 90629.4
-0.0976454 0.137315 90518.4
-0.105182 0.137815 90396.6
-0.112901 0.138328 90263.4
-0.120805 0.138853 90118.2
-0.1289 0.139391 89960.5
-0.137188 0.139943 89789.6
-0.145674 0.140508 89604.7
-0.154362 0.141087 89405.2
-0.163256 0.141679 89190.1
-0.172361 0.142287 88958.5
-0.181682 0.142908 88709
-0.191221 0.143545 88440.6
-0.200986 0.144197 88151.6
-0.210978 0.144864 87840.4
-0.221205 0.145548 87505.1
-0.231669 0.146247 87143.7
-0.242377 0.146963 86752.9
-0.253333 0.147696 86325.2
-0.264541 0.148445 85827
-0.276008 0.149213 85083.4
-0.287738 0.149998 83176
-0.299737 0.150801 75641.4
-0.312009 0.151623 47803.2
-0.32456 0.152464 9705.7
-0.337396 0.153324 2468.28
-0.350521 0.154204 1978.18
-0.363942 0.155104 1935.21
-0.377663 0.156024 1931.38
-0.391691 0.156965 1931.03
-0.406031 0.157928 1931
-0.420688 0.158912 1931
-0.435669 0.159919 1931
0.00703712 0.137587 91491.3
0.00206142 0.137929 91129.6
-0.00304043 0.138281 91113.7
-0.00827126 0.138641 91111.8
-0.0136339 0.139011 91105.6
-0.0191312 0.139392 91093.6
-0.0247662 0.139782 91075.6
-0.0305418 0.140182 91051.3
-0.0364612 0.140593 91020.4
-0.0425275 0.141014 90982.4
-0.0487438 0.141446 90937.2
-0.0551136 0.14189 90884.2
-0.06164 0.142344 90823.3
-0.0683265 0.142811 90753.9
-0.0751765 0.143289 90675.6
-0.0821937 0.143779 90587.9
-0.0893816 0.144282 90490.5
-0.0967438 0.144797 90382.8
-0.104284 0.145325 90264.2
-0.112007 0.145866 90134.3
-0.119915 0.146421 89992.5
-0.128013 0.146989 89838.1
-0.136305 0.147571 89670.6
-0.144794 0.148167 89489.2
-0.153486 0.148778 89293.1
-0.162385 0.149404 89081.4
-0.171494 0.150045 88853.2
-0.180818 0.150701 88607.3
-0.190362 0.151373 88342.3
-0.20013 0.152061 88056.8
-0.210127 0.152765 87749.2
-0.220358 0.153487 87417.5
-0.230827 0.154225 87059.8
-0.241539 0.15498 86672.7
-0.252499 0.155753 86248.9
-0.263712 0.156545 85755.1
-0.275184 0.157355 85018.7
-0.286919 0.158183 83131.7
-0.298922 0.159031 75678.5
-0.311199 0.159898 48048.5
-0.323755 0.160786 9844.57
-0.336596 0.161693 2476.53
-0.349726 0.162622 1978.9
-0.363152 0.163571 1935.28
-0.376878 0.164543 1931.38
-0.390912 0.165536 1931.03
-0.405257 0.166552 1931
-0.41992 0.16759 1931
-0.434907 0.168653 1931
0.00805148 0.144726 91290.1
0.00307259 0.145087 90935.2
-0.00203248 0.145457 90922.3
-0.00726655 0.145837 90923.4
-0.0126325 0.146227 90920.1
-0.0181331 0.146627 90911.2
-0.0237714 0.147038 90896.2
-0.0295504 0.14746 90875
-0.0354732 0.147892 90847.2
-0.041543 0.148336 90812.4
-0.0477628 0.148791 90770.3
-0.0541361 0.149258 90720.6
-0.0606661 0.149737 90662.9
-0.0673562 0.150229 90596.8
-0.0742099 0.150732 90521.8
-0.0812308 0.151248 90437.5
-0.0884224 0.151778 90343.5
-0.0957884 0.15232 90239.2