VARIABLES = "X", "Y", "T,K" 
ZONE I= 49, J= 149, DATAPACKING=POINT
-0.00243344 0.00315472 2623.48
-0.00738272 0.00316244 2617.09
-0.0124575 0.00317039 2611.11
-0.0176607 0.00317854 2602.77
-0.0229951 0.00318692 2592.28
-0.0284636 0.00319552 2580.14
-0.0340692 0.00320435 2566.85
-0.0398149 0.00321341 2552.91
-0.0457038 0.00322271 2538.77
-0.0517391 0.00323225 2524.82
-0.0579239 0.00324204 2511.35
-0.0642617 0.00325209 2498.57
-0.0707556 0.00326239 2486.59
-0.0774091 0.00327296 2475.47
-0.0842256 0.00328379 2465.2
-0.0912088 0.0032949 2455.75
-0.0983623 0.0033063 2447.05
-0.10569 0.00331798 2439.01
-0.113195 0.00332995 2431.54
-0.120881 0.00334222 2424.56
-0.128753 0.0033548 2417.99
-0.136814 0.00336769 2411.75
-0.145068 0.0033809 2405.79
-0.15352 0.00339443 2400.05
-0.162174 0.00340829 2394.47
-0.171034 0.0034225 2389.02
-0.180103 0.00343704 2383.65
-0.189388 0.00345194 2378.34
-0.198891 0.0034672 2373.04
-0.208619 0.00348283 2367.74
-0.218574 0.00349883 2362.39
-0.228763 0.00351521 2356.98
-0.239189 0.00353198 2351.49
-0.249857 0.00354914 2345.9
-0.260774 0.00356671 2340.16
-0.271942 0.0035847 2333.98
-0.283368 0.0036031 2325.78
-0.295057 0.00362194 2306.96
-0.307013 0.00364121 2230.67
-0.319242 0.00366093 1846.19
-0.331749 0.0036811 702.428
-0.34454 0.00370174 311.173
-0.357619 0.00372286 278.036
-0.370992 0.00374445 275.333
-0.384665 0.00376654 275.119
-0.398643 0.00378914 275.102
-0.41293 0.00381225 275.1
-0.427533 0.00383588 275.1
-0.442457 0.00386005 275.1
-0.00239145 0.00948519 2628.04
-0.00734078 0.00950842 2621.64
-0.0124157 0.00953231 2615.63
-0.0176189 0.00955685 2607.23
-0.0229534 0.00958204 2596.7
-0.028422 0.0096079 2584.5
-0.0340276 0.00963445 2571.14
-0.0397735 0.0096617 2557.14
-0.0456625 0.00968966 2542.95
-0.0516979 0.00971835 2528.93
-0.0578829 0.00974779 2515.4
-0.0642207 0.00977799 2502.56
-0.0707147 0.00980896 2490.53
-0.0773684 0.00984073 2479.36
-0.0841851 0.00987332 2469.05
-0.0911684 0.00990673 2459.55
-0.0983219 0.00994098 2450.81
-0.105649 0.0099761 2442.73
-0.113154 0.0100121 2435.22
-0.120841 0.010049 2428.21
-0.128713 0.0100868 2421.61
-0.136774 0.0101256 2415.36
-0.145029 0.0101653 2409.38
-0.153481 0.010206 2403.61
-0.162135 0.0102477 2398.03
-0.170995 0.0102904 2392.57
-0.180065 0.0103341 2387.2
-0.189349 0.0103789 2381.88
-0.198853 0.0104248 2376.59
-0.20858 0.0104718 2371.29
-0.218536 0.0105199 2365.96
-0.228724 0.0105691 2360.57
-0.239151 0.0106196 2355.11
-0.24982 0.0106712 2349.54
-0.260736 0.010724 2343.82
-0.271905 0.0107781 2337.63
-0.283331 0.0108334 2329.37
-0.29502 0.01089 2310.4
-0.306976 0.010948 2234.13
-0.319205 0.0110073 1850.91
-0.331713 0.0110679 706.42
-0.344503 0.01113 311.417
-0.357583 0.0111935 278.055
-0.370957 0.0112584 275.335
-0.38463 0.0113249 275.119
-0.398608 0.0113928 275.102
-0.412896 0.0114623 275.1
-0.427499 0.0115333 275.1
-0.442422 0.011606 275.1
-0.00230942 0.0158577 2628.33
-0.00725886 0.0158966 2621.95
-0.0123339 0.0159365 2615.94
-0.0175373 0.0159775 2607.54
-0.0228719 0.0160197 2597.01
-0.0283407 0.0160629 2584.82
-0.0339466 0.0161073 2571.47
-0.0396926 0.0161529 2557.46
-0.0455819 0.0161996 2543.27
-0.0516175 0.0162476 2529.25
-0.0578027 0.0162968 2515.72
-0.0641408 0.0163473 2502.87
-0.0706351 0.0163991 2490.83
-0.077289 0.0164522 2479.65
-0.084106 0.0165067 2469.34
-0.0910895 0.0165626 2459.84
-0.0982434 0.0166198 2451.09
-0.105571 0.0166785 2443
-0.113077 0.0167387 2435.5
-0.120763 0.0168004 2428.49
-0.128636 0.0168637 2421.89
-0.136697 0.0169285 2415.63
-0.144952 0.0169949 2409.65
-0.153405 0.0170629 2403.89
-0.162059 0.0171326 2398.3
-0.170919 0.017204 2392.85
-0.179989 0.0172771 2387.49
-0.189274 0.017352 2382.18
-0.198778 0.0174288 2376.9
-0.208506 0.0175073 2371.62
-0.218462 0.0175877 2366.3
-0.228651 0.0176701 2360.94
-0.239077 0.0177544 2355.51
-0.249747 0.0178407 2349.99
-0.260663 0.017929 2344.32
-0.271832 0.0180194 2338.21
-0.283259 0.018112 2330.03
-0.294948 0.0182066 2311.21
-0.306905 0.0183035 2235.51
-0.319135 0.0184027 1854.4
-0.331642 0.0185041 710.167
-0.344434 0.0186078 311.687
-0.357514 0.018714 278.077
-0.370888 0.0188226 275.336
-0.384561 0.0189336 275.119
-0.39854 0.0190472 275.102
-0.412828 0.0191634 275.1
-0.427432 0.0192822 275.1
-0.442357 0.0194037 275.1
-0.00218649 0.0222722 2628.31
-0.00713611 0.0223268 2621.94
-0.0122114 0.0223829 2615.94
-0.017415 0.0224405 2607.56
-0.0227499 0.0224997 2597.04
-0.028219 0.0225605 2584.85
-0.0338252 0.0226228 2571.51
-0.0395716 0.0226868 2557.51
-0.0454612 0.0227525 2543.32
-0.0514972 0.0228199 2529.3
-0.0576828 0.022889 2515.77
-0.0640212 0.02296 2502.92
-0.0705159 0.0230327 2490.88
-0.0771702 0.0231073 2479.7
-0.0839876 0.0231839 2469.38
-0.0909716 0.0232623 2459.88
-0.0981258 0.0233428 2451.13
-0.105454 0.0234253 2443.05
-0.11296 0.0235098 2435.54
-0.120647 0.0235965 2428.53
-0.12852 0.0236853 2421.93
-0.136582 0.0237763 2415.67
-0.144837 0.0238696 2409.7
-0.15329 0.0239652 2403.94
-0.161945 0.0240631 2398.36
-0.170805 0.0241634 2392.92
-0.179876 0.0242661 2387.56
-0.189162 0.0243713 2382.27
-0.198666 0.0244791 2377
-0.208394 0.0245894 2371.74
-0.218351 0.0247024 2366.45
-0.22854 0.0248181 2361.12
-0.238968 0.0249365 2355.73
-0.249637 0.0250577 2350.26
-0.260555 0.0251818 2344.64
-0.271724 0.0253088 2338.58
-0.283152 0.0254387 2330.46
-0.294841 0.0255717 2311.73
-0.306799 0.0257078 2236.45
-0.319029 0.0258471 1857.31
-0.331537 0.0259896 713.756
-0.344329 0.0261353 311.966
-0.35741 0.0262844 278.1
-0.370785 0.0264369 275.338
-0.384459 0.0265929 275.119
-0.398438 0.0267525 275.102
-0.412728 0.0269156 275.1
-0.427333 0.0270825 275.1
-0.442259 0.0272532 275.1
-0.00202176 0.0287285 2628.21
-0.00697167 0.028799 2621.86
-0.0120472 0.0288714 2615.87
-0.0172512 0.0289457 2607.49
-0.0225866 0.0290221 2596.99
-0.028056 0.0291005 2584.81
-0.0336627 0.0291809 2571.48
-0.0394095 0.0292635 2557.49
-0.0452996 0.0293482 2543.3
-0.0513361 0.0294352 2529.29
-0.0575222 0.0295244 2515.76
-0.0638611 0.0296159 2502.92
-0.0703563 0.0297097 2490.87
-0.0770112 0.029806 2479.69
-0.0838291 0.0299047 2469.37
-0.0908137 0.030006 2459.87
-0.0979685 0.0301098 2451.12
-0.105297 0.0302162 2443.03
-0.112804 0.0303253 2435.53
-0.120492 0.0304371 2428.51
-0.128365 0.0305517 2421.92
-0.136428 0.0306691 2415.67
-0.144684 0.0307894 2409.69
-0.153137 0.0309127 2403.94
-0.161793 0.0310391 2398.37
-0.170654 0.0311684 2392.93
-0.179725 0.031301 2387.59
-0.189011 0.0314367 2382.31
-0.198517 0.0315757 2377.06
-0.208246 0.0317181 2371.82
-0.218203 0.0318638 2366.55
-0.228393 0.0320131 2361.25
-0.238821 0.0321658 2355.89
-0.249492 0.0323222 2350.45
-0.26041 0.0324823 2344.87
-0.27158 0.0326461 2338.82
-0.283008 0.0328138 2330.7
-0.294699 0.0329854 2311.99
-0.306657 0.0331609 2237.04
-0.318888 0.0333406 1859.78
-0.331397 0.0335244 717.234
-0.34419 0.0337124 312.247
-0.357271 0.0339047 278.124
-0.370647 0.0341015 275.34
-0.384323 0.0343027 275.119
-0.398303 0.0345086 275.102
-0.412594 0.0347191 275.1
-0.4272 0.0349344 275.1
-0.442128 0.0351546 275.1
-0.00181435 0.0352266 2628.04
-0.00676466 0.035313 2621.71
-0.0118407 0.0354018 2615.73
-0.0170451 0.035493 2607.37
-0.022381 0.0355867 2596.87
-0.027851 0.0356828 2584.71
-0.0334582 0.0357815 2571.39
-0.0392056 0.0358828 2557.41
-0.0450963 0.0359867 2543.23
-0.0511334 0.0360933 2529.23
-0.0573201 0.0362027 2515.71
-0.0636597 0.036315 2502.86
-0.0701556 0.0364301 2490.82
-0.0768111 0.0365482 2479.64
-0.0836298 0.0366693 2469.32
-0.0906151 0.0367934 2459.81
-0.0977706 0.0369208 2451.06
-0.1051 0.0370513 2442.97
-0.112607 0.0371851 2435.46
-0.120296 0.0373222 2428.45
-0.12817 0.0374627 2421.86
-0.136234 0.0376068 2415.61
-0.144491 0.0377544 2409.64
-0.152945 0.0379056 2403.9
-0.161601 0.0380605 2398.33
-0.170463 0.0382192 2392.9
-0.179535 0.0383817 2387.57
-0.188822 0.0385482 2382.3
-0.198328 0.0387187 2377.07
-0.208058 0.0388933 2371.84
-0.218016 0.039072 2366.59
-0.228208 0.0392551 2361.31
-0.238637 0.0394424 2355.97
-0.249308 0.0396342 2350.54
-0.260227 0.0398305 2344.96
-0.271399 0.0400315 2338.89
-0.282827 0.0402371 2330.73
-0.294519 0.0404475 2312.02
-0.306478 0.0406629 2237.37
-0.318711 0.0408832 1861.98
-0.331221 0.0411086 720.651
-0.344015 0.0413392 312.527
-0.357097 0.0415751 278.148
-0.370474 0.0418164 275.342
-0.384151 0.0420632 275.119
-0.398133 0.0423156 275.102
-0.412425 0.0425738 275.1
-0.427033 0.0428378 275.1
-0.441963 0.0431079 275.1
-0.00156336 0.0417662 2627.79
-0.00651419 0.0418688 2621.49
-0.0115908 0.0419741 2615.52
-0.0167958 0.0420823 2607.18
-0.0221323 0.0421934 2596.7
-0.027603 0.0423074 2584.55
-0.0332109 0.0424245 2571.25
-0.038959 0.0425446 2557.28
-0.0448504 0.0426678 2543.11
-0.0508883 0.0427943 2529.12
-0.0570758 0.0429241 2515.6
-0.0634162 0.0430572 2502.75
-0.0699129 0.0431937 2490.71
-0.0765693 0.0433338 2479.53
-0.0833888 0.0434774 2469.21
-0.090375 0.0436246 2459.7
-0.0975314 0.0437756 2450.95
-0.104862 0.0439304 2442.86
-0.11237 0.0440891 2435.35
-0.12006 0.0442517 2428.34
-0.127935 0.0444184 2421.75
-0.135999 0.0445892 2415.51
-0.144257 0.0447643 2409.54
-0.152712 0.0449436 2403.8
-0.161369 0.0451273 2398.24
-0.170233 0.0453155 2392.82
-0.179306 0.0455083 2387.5
-0.188594 0.0457057 2382.24
-0.198101 0.0459079 2377.01
-0.207832 0.046115 2371.79
-0.217791 0.046327 2366.55
-0.227984 0.046544 2361.27
-0.238414 0.0467662 2355.93
-0.249086 0.0469937 2350.5
-0.260007 0.0472265 2344.89
-0.271179 0.0474648 2338.79
-0.282609 0.0477087 2330.57
-0.294302 0.0479582 2311.85
-0.306263 0.0482136 2237.52
-0.318496 0.0484749 1864.02
-0.331008 0.0487422 724.073
-0.343803 0.0490156 312.81
-0.356887 0.0492954 278.173
-0.370266 0.0495815 275.344
-0.383944 0.0498742 275.12
-0.397927 0.0501736 275.102
-0.412221 0.0504798 275.1
-0.426831 0.0507929 275.1
-0.441764 0.0511132 275.1
-0.00126787 0.0483474 2627.48
-0.00621937 0.0484661 2621.2
-0.0112966 0.0485881 2615.25
-0.0165025 0.0487134 2606.92
-0.0218397 0.0488421 2596.46
-0.0273112 0.0489741 2584.33
-0.0329199 0.0491096 2571.04
-0.0386689 0.0492487 2557.09
-0.0445612 0.0493915 2542.93
-0.0506 0.0495379 2528.95
-0.0567884 0.0496882 2515.43
-0.0631298 0.0498423 2502.59
-0.0696275 0.0500004 2490.55
-0.0762849 0.0501626 2479.37
-0.0831054 0.0503289 2469.05
-0.0900926 0.0504994 2459.54
-0.0972501 0.0506743 2450.78
-0.104582 0.0508535 2442.7
-0.112091 0.0510373 2435.19
-0.119782 0.0512256 2428.18
-0.127658 0.0514186 2421.59
-0.135723 0.0516164 2415.35
-0.143982 0.0518191 2409.38
-0.152439 0.0520268 2403.65
-0.161097 0.0522395 2398.09
-0.169961 0.0524574 2392.68
-0.179036 0.0526806 2387.36
-0.188325 0.0529093 2382.1
-0.197834 0.0531434 2376.88
-0.207566 0.0533831 2371.66
-0.217527 0.0536286 2366.42
-0.22772 0.0538799 2361.13
-0.238152 0.0541372 2355.78
-0.248826 0.0544006 2350.33
-0.259747 0.0546702 2344.68
-0.270921 0.0549461 2338.53
-0.282353 0.0552285 2330.26
-0.294047 0.0555174 2311.54
-0.306009 0.0558131 2237.55
-0.318244 0.0561156 1866
-0.330757 0.0564251 727.568
-0.343554 0.0567418 313.099
-0.35664 0.0570657 278.198
-0.37002 0.057397 275.346
-0.3837 0.0577359 275.12
-0.397685 0.0580825 275.102
-0.411981 0.0584371 275.1
-0.426594 0.0587996 275.1
-0.441529 0.0591705 275.1
-0.000926992 0.0549698 2627.1
-0.0058793 0.0551049 2620.85
-0.0109574 0.0552437 2614.91
-0.0161641 0.0553862 2606.6
-0.0215023 0.0555326 2596.16
-0.0269747 0.0556828 2584.05
-0.0325844 0.0558369 2570.78
-0.0383344 0.0559951 2556.84
-0.0442277 0.0561575 2542.7
-0.0502676 0.0563241 2528.72
-0.0564571 0.056495 2515.21
-0.0627996 0.0566703 2502.37
-0.0692984 0.0568502 2490.34
-0.075957 0.0570347 2479.16
-0.0827787 0.0572238 2468.83
-0.0897671 0.0574178 2459.32
-0.0969258 0.0576167 2450.57
-0.104259 0.0578205 2442.48
-0.111769 0.0580295 2434.97
-0.119461 0.0582437 2427.96
-0.127339 0.0584633 2421.37
-0.135405 0.0586883 2415.13
-0.143666 0.0589188 2409.17
-0.152124 0.059155 2403.43
-0.160783 0.059397 2397.88
-0.169649 0.0596448 2392.46
-0.178725 0.0598987 2387.14
-0.188016 0.0601587 2381.88
-0.197526 0.060425 2376.66
-0.207259 0.0606977 2371.44
-0.217221 0.0609769 2366.19
-0.227417 0.0612628 2360.88
-0.237849 0.0615554 2355.51
-0.248525 0.0618549 2350.02
-0.259448 0.0621615 2344.34
-0.270624 0.0624754 2338.13
-0.282057 0.0627965 2329.82
-0.293753 0.0631251 2311.12
-0.305717 0.0634614 2237.5
-0.317954 0.0638055 1867.99
-0.330469 0.0641575 731.197
-0.343267 0.0645176 313.4
-0.356355 0.064886 278.224
-0.369737 0.0652628 275.348
-0.383419 0.0656483 275.12
-0.397406 0.0660425 275.102
-0.411704 0.0664457 275.1
-0.426319 0.066858 275.1
-0.441257 0.0672797 275.1
-0.000539809 0.0616335 2626.64
-0.00549309 0.061785 2620.42
-0.0105722 0.0619407 2614.5
-0.01578 0.0621006 2606.21
-0.0211192 0.0622647 2595.79
-0.0265927 0.0624332 2583.7
-0.0322035 0.0626062 2570.45
-0.0379547 0.0627836 2556.53
-0.0438492 0.0629658 2542.4
-0.0498903 0.0631527 2528.44
-0.0560811 0.0633444 2514.93
-0.0624249 0.0635411 2502.1
-0.068925 0.0637428 2490.06
-0.0755848 0.0639497 2478.88
-0.0824079 0.0641619 2468.56
-0.0893977 0.0643795 2459.05
-0.0965578 0.0646026 2450.29
-0.103892 0.0648313 2442.2
-0.111404 0.0650657 2434.69
-0.119097 0.065306 2427.68
-0.126976 0.0655523 2421.09
-0.135045 0.0658047 2414.84
-0.143307 0.0660632 2408.88
-0.151766 0.0663282 2403.15
-0.160427 0.0665996 2397.59
-0.169295 0.0668776 2392.17
-0.178372 0.0671624 2386.85
-0.187664 0.0674541 2381.58
-0.197176 0.0677528 2376.35
-0.206911 0.0680586 2371.11
-0.216875 0.0683718 2365.85
-0.227072 0.0686924 2360.53
-0.237507 0.0690206 2355.12
-0.248184 0.0693566 2349.6
-0.259109 0.0697005 2343.88
-0.270287 0.0700525 2337.62
-0.281722 0.0704127 2329.28
-0.29342 0.0707813 2310.62
-0.305385 0.0711585 2237.39
-0.317624 0.0715444 1870.03
-0.330141 0.0719392 735.013
-0.342942 0.0723432 313.716
-0.356031 0.0727564 278.251
-0.369416 0.073179 275.35
-0.3831 0.0736113 275.12
-0.397089 0.0740534 275.102
-0.41139 0.0745056 275.1
-0.426007 0.0749681 275.1
-0.440947 0.075441 275.1
-0.00010541 0.0683381 2626.11
-0.00505982 0.0685062 2619.92
-0.0101401 0.0686789 2614.02
-0.015349 0.0688563 2605.75
-0.0206895 0.0690384 2595.35
-0.0261643 0.0692253 2583.29
-0.0317764 0.0694172 2570.06
-0.0375289 0.0696141 2556.16
-0.0434248 0.0698162 2542.04
-0.0494673 0.0700235 2528.09
-0.0556595 0.0702362 2514.59
-0.0620047 0.0704544 2501.76
-0.0685063 0.0706782 2489.73
-0.0751676 0.0709078 2478.55
-0.0819922 0.0711432 2468.22
-0.0889835 0.0713845 2458.71
-0.0961452 0.071632 2449.95
-0.103481 0.0718857 2441.86
-0.110994 0.0721458 2434.34
-0.11869 0.0724124 2427.33
-0.12657 0.0726856 2420.74
-0.13464 0.0729655 2414.49
-0.142904 0.0732524 2408.52
-0.151365 0.0735463 2402.79
-0.160028 0.0738473 2397.22
-0.168897 0.0741558 2391.8
-0.177977 0.0744717 2386.47
-0.187271 0.0747952 2381.19
-0.196784 0.0751265 2375.95
-0.206521 0.0754658 2370.7
-0.216487 0.0758132 2365.41
-0.226686 0.0761688 2360.06
-0.237122 0.0765329 2354.63
-0.247802 0.0769056 2349.07
-0.258729 0.0772871 2343.31
-0.269908 0.0776775 2337.02
-0.281346 0.0780771 2328.65
-0.293046 0.078486 2310.05
-0.305014 0.0789043 2237.25
-0.317254 0.0793324 1872.16
-0.329774 0.0797703 739.057
-0.342577 0.0802184 314.05
-0.355669 0.0806767 278.28
-0.369056 0.0811455 275.353
-0.382742 0.081625 275.12
-0.396734 0.0821154 275.102
-0.411038 0.082617 275.1
-0.425657 0.0831299 275.1
-0.440599 0.0836545 275.1
0.000377117 0.0750835 2625.5
-0.00457859 0.0752683 2619.35
-0.00966021 0.0754582 2613.47
-0.0148705 0.0756532 2605.23
-0.0202123 0.0758534 2594.85
-0.0256886 0.0760589 2582.81
-0.0313022 0.0762699 2569.6
-0.0370562 0.0764864 2555.72
-0.0429536 0.0767085 2541.62
-0.0489976 0.0769364 2527.68
-0.0551914 0.0771703 2514.19
-0.0615382 0.0774102 2501.37
-0.0680414 0.0776562 2489.33
-0.0747044 0.0779086 2478.15
-0.0815307 0.0781674 2467.83
-0.0885237 0.0784327 2458.31
-0.0956872 0.0787048 2449.54
-0.103025 0.0789837 2441.45
-0.11054 0.0792696 2433.93
-0.118237 0.0795626 2426.91
-0.126119 0.079863 2420.32
-0.134191 0.0801707 2414.06
-0.142457 0.080486 2408.09
-0.15092 0.0808091 2402.35
-0.159585 0.0811401 2396.78
-0.168456 0.0814791 2391.34
-0.177537 0.0818264 2386
-0.186834 0.0821821 2380.72
-0.196349 0.0825463 2375.45
-0.206088 0.0829192 2370.18
-0.216056 0.0833011 2364.88
-0.226257 0.083692 2359.5
-0.236696 0.0840922 2354.04
-0.247378 0.0845019 2348.45
-0.258307 0.0849212 2342.66
-0.269489 0.0853504 2336.34
-0.280928 0.0857896 2327.95
-0.292631 0.086239 2309.42
-0.304601 0.0866989 2237.08
-0.316844 0.0871694 1874.38
-0.329366 0.0876508 743.364
-0.342172 0.0881432 314.406
-0.355267 0.088647 278.31
-0.368656 0.0891623 275.355
-0.382345 0.0896893 275.121
-0.39634 0.0902284 275.102
-0.410646 0.0907796 275.1
-0.425269 0.0913434 275.1
-0.440214 0.09192 275.1
0.000908689 0.0818694 2624.82
-0.0040485 0.0820711 2618.71
-0.00913162 0.0822783 2612.85
-0.0143435 0.0824911 2604.63
-0.0196869 0.0827096 2594.28
-0.0251647 0.0829338 2582.26
-0.0307799 0.083164 2569.07
-0.0365356 0.0834002 2555.21
-0.0424347 0.0836426 2541.13
-0.0484804 0.0838913 2527.2
-0.054676 0.0841464 2513.72
-0.0610246 0.0844082 2500.9
-0.0675296 0.0846767 2488.87
-0.0741945 0.084952 2477.69
-0.0810226 0.0852344 2467.36
-0.0880176 0.0855239 2457.84
-0.0951829 0.0858207 2449.07
-0.102522 0.086125 2440.97
-0.11004 0.086437 2433.45
-0.117739 0.0867567 2426.43
-0.125623 0.0870844 2419.82
-0.133697 0.0874201 2413.56
-0.141965 0.0877642 2407.58
-0.15043 0.0881166 2401.83
-0.159097 0.0884777 2396.25
-0.16797 0.0888476 2390.81
-0.177054 0.0892265 2385.45
-0.186352 0.0896145 2380.15
-0.19587 0.0900119 2374.87
-0.205612 0.0904187 2369.58
-0.215582 0.0908353 2364.25
-0.225785 0.0912618 2358.85
-0.236227 0.0916984 2353.36
-0.246911 0.0921454 2347.75
-0.257842 0.0926028 2341.92
-0.269027 0.093071 2335.58
-0.280469 0.0935501 2327.19
-0.292174 0.0940404 2308.73
-0.304147 0.094542 2236.88
-0.316393 0.0950553 1876.72
-0.328917 0.0955805 747.959
-0.341726 0.0961177 314.785
-0.354824 0.0966672 278.343
-0.368216 0.0972293 275.358
-0.381908 0.0978043 275.121
-0.395906 0.0983923 275.102
-0.410216 0.0989937 275.1
-0.424842 0.0996087 275.1
-0.43979 0.100238 275.1
0.00149022 0.0886957 2624.07
-0.00346862 0.0889144 2617.99
-0.00855342 0.0891391 2612.15
-0.013767 0.0893698 2603.95
-0.0191121 0.0896066 2593.63
-0.0245917 0.0898498 2581.64
-0.0302088 0.0900993 2568.47
-0.0359663 0.0903554 2554.63
-0.0418673 0.0906182 2540.57
-0.0479149 0.0908879 2526.65
-0.0541124 0.0911645 2513.18
-0.060463 0.0914483 2500.36
-0.06697 0.0917394 2488.34
-0.0736369 0.0920379 2477.16
-0.0804671 0.092344 2466.82
-0.0874641 0.0926579 2457.3
-0.0946316 0.0929797 2448.53
-0.101973 0.0933096 2440.42
-0.109493 0.0936478 2432.89
-0.117194 0.0939944 2425.86
-0.125081 0.0943496 2419.25
-0.133157 0.0947136 2412.98
-0.141427 0.0950866 2406.99
-0.149894 0.0954687 2401.23
-0.158564 0.0958602 2395.64
-0.167439 0.0962611 2390.18
-0.176525 0.0966718 2384.81
-0.185826 0.0970925 2379.5
-0.195347 0.0975232 2374.2
-0.205091 0.0979642 2368.89
-0.215063 0.0984158 2363.53
-0.225269 0.0988782 2358.11
-0.235713 0.0993514 2352.6
-0.2464 0.0998359 2346.96
-0.257334 0.100332 2341.11
-0.268522 0.100839 2334.75
-0.279966 0.101359 2326.36
-0.291674 0.10189 2307.98
-0.30365 0.102434 2236.65
-0.315899 0.10299 1879.17
-0.328427 0.103559 752.862
-0.341238 0.104142 315.19
-0.354339 0.104737 278.378
-0.367735 0.105347 275.361
-0.38143 0.10597 275.121
-0.395432 0.106607 275.102
-0.409745 0.107259 275.1
-0.424374 0.107926 275.1
-0.439326 0.108607 275.1
0.00212263 0.0955621 2623.23
-0.00283804 0.0957979 2617.19
-0.00792471 0.0960402 2611.38
-0.0131402 0.096289 2603.21
-0.0184872 0.0965444 2592.91
-0.0239688 0.0968066 2580.94
-0.0295878 0.0970757 2567.8
-0.0353474 0.0973518 2553.98
-0.0412504 0.0976352 2539.93
-0.0473001 0.097926 2526.03
-0.0534997 0.0982243 2512.57
-0.0598525 0.0985303 2499.76
-0.0663617 0.0988441 2487.73
-0.0730308 0.099166 2476.55
-0.0798632 0.0994961 2466.21
-0.0868625 0.0998345 2456.69
-0.0940323 0.100182 2447.91
-0.101376 0.100537 2439.79
-0.108898 0.100902 2432.26
-0.116602 0.101276 2425.22
-0.124491 0.101659 2418.6
-0.13257 0.102051 2412.32
-0.140842 0.102453 2406.33
-0.149312 0.102865 2400.55
-0.157984 0.103287 2394.95
-0.166862 0.10372 2389.48
-0.175951 0.104162 2384.09
-0.185255 0.104616 2378.76
-0.194778 0.10508 2373.44
-0.204524 0.105556 2368.11
-0.2145 0.106043 2362.74
-0.224709 0.106541 2357.29
-0.235155 0.107051 2351.76
-0.245845 0.107573 2346.1
-0.256782 0.108108 2340.23
-0.267973 0.108655 2333.85
-0.27942 0.109215 2325.46
-0.291131 0.109788 2307.18
-0.30311 0.110374 2236.39
-0.315363 0.110974 1881.75
-0.327894 0.111588 758.089
-0.340708 0.112215 315.622
-0.353813 0.112857 278.416
-0.367212 0.113514 275.364
-0.380911 0.114186 275.121
-0.394916 0.114873 275.102
-0.409232 0.115576 275.1
-0.423866 0.116294 275.1
-0.438822 0.117029 275.1
0.00280684 0.102468 2622.31
-0.00215586 0.102721 2616.32
-0.00724458 0.102982 2610.53
-0.0124621 0.103249 2602.38
-0.0178113 0.103523 2592.11
-0.023295 0.103804 2580.17
-0.0289162 0.104093 2567.06
-0.0346779 0.104389 2553.26
-0.0405832 0.104693 2539.23
-0.0466352 0.105005 2525.34
-0.0528371 0.105326 2511.88
-0.0591922 0.105654 2499.08
-0.0657038 0.105991 2487.05
-0.0723753 0.106336 2475.87
-0.0792102 0.10669 2465.53
-0.086212 0.107054 2456
-0.0933843 0.107426 2447.21
-0.100731 0.107808 2439.09
-0.108255 0.108199 2431.55
-0.115961 0.1086 2424.5
-0.123853 0.109011 2417.87
-0.131935 0.109432 2411.58
-0.14021 0.109864 2405.58
-0.148683 0.110306 2399.79
-0.157357 0.110759 2394.17
-0.166238 0.111223 2388.69
-0.17533 0.111698 2383.29
-0.184636 0.112184 2377.93
-0.194162 0.112683 2372.6
-0.203912 0.113193 2367.25
-0.213891 0.113715 2361.86
-0.224102 0.11425 2356.4
-0.234552 0.114798 2350.84
-0.245245 0.115358 2345.16
-0.256185 0.115932 2339.27
-0.267379 0.116519 2332.88
-0.27883 0.117119 2324.5
-0.290544 0.117734 2306.31
-0.302527 0.118363 2236.1
-0.314782 0.119007 1884.44
-0.327317 0.119665 763.657
-0.340135 0.120338 316.083
-0.353243 0.121027 278.456
-0.366646 0.121732 275.367
-0.380349 0.122453 275.121
-0.394358 0.12319 275.102
-0.408679 0.123944 275.1
-0.423316 0.124715 275.1
-0.438277 0.125503 275.1
0.00354377 0.109414 2621.32
-0.00142114 0.109685 2615.37
-0.0065121 0.109963 2609.6
-0.0117319 0.110248 2601.48
-0.0170834 0.110541 2591.24
-0.0225694 0.110842 2579.32
-0.028193 0.111151 2566.23
-0.0339571 0.111467 2552.46
-0.0398648 0.111792 2538.44
-0.0459193 0.112126 2524.57
-0.0521237 0.112468 2511.12
-0.0584813 0.112819 2498.32
-0.0649955 0.113179 2486.3
-0.0716696 0.113548 2475.11
-0.0785071 0.113927 2464.77
-0.0855115 0.114315 2455.23
-0.0926865 0.114713 2446.44
-0.100036 0.115121 2438.31
-0.107563 0.115539 2430.76
-0.115272 0.115968 2423.7
-0.123167 0.116407 2417.06
-0.131251 0.116857 2410.76
-0.139529 0.117318 2404.74
-0.148005 0.117791 2398.95
-0.156683 0.118275 2393.32
-0.165567 0.11877 2387.81
-0.174661 0.119278 2382.4
-0.183971 0.119798 2377.03
-0.1935 0.120331 2371.68
-0.203253 0.120876 2366.31
-0.213235 0.121434 2360.9
-0.22345 0.122005 2355.42
-0.233903 0.12259 2349.85
-0.244599 0.123189 2344.15
-0.255543 0.123802 2338.25
-0.26674 0.124429 2331.85
-0.278194 0.125071 2323.47
-0.289912 0.125728 2305.38
-0.301898 0.1264 2235.77
-0.314158 0.127088 1887.24
-0.326696 0.127791 769.579
-0.339518 0.128511 316.574
-0.35263 0.129247 278.499
-0.366037 0.13 275.37
-0.379744 0.13077 275.122
-0.393758 0.131558 275.102
-0.408082 0.132363 275.1
-0.422725 0.133187 275.1
-0.43769 0.134029 275.1
0.00433434 0.116399 2620.23
-0.000632974 0.116687 2614.33
-0.00572636 0.116983 2608.59
-0.0109486 0.117287 2600.5
-0.0163026 0.117599 2590.29
-0.0217912 0.11792 2578.4
-0.0274173 0.118249 2565.33
-0.033184 0.118586 2551.58
-0.0390943 0.118932 2537.58
-0.0451515 0.119287 2523.72
-0.0513585 0.119652 2510.28
-0.0577189 0.120025 2497.49
-0.0642358 0.120409 2485.47
-0.0709127 0.120802 2474.28
-0.077753 0.121205 2463.93
-0.0847604 0.121619 2454.39
-0.0919383 0.122042 2445.59
-0.0992905 0.122477 2437.45
-0.106821 0.122922 2429.89
-0.114533 0.123378 2422.82
-0.12243 0.123846 2416.17
-0.130518 0.124325 2409.86
-0.138799 0.124816 2403.83
-0.147278 0.125319 2398.02
-0.155959 0.125835 2392.38
-0.164846 0.126363 2386.86
-0.173944 0.126903 2381.43
-0.183257 0.127457 2376.05
-0.192789 0.128024 2370.68
-0.202546 0.128604 2365.3
-0.212531 0.129198 2359.87
-0.22275 0.129807 2354.37
-0.233206 0.13043 2348.79
-0.243906 0.131067 2343.07
-0.254854 0.13172 2337.15
-0.266054 0.132388 2330.74
-0.277513 0.133071 2322.38
-0.289234 0.13377 2304.38
-0.301224 0.134486 2235.4
-0.313488 0.135218 1890.16
-0.32603 0.135967 775.869
-0.338857 0.136733 317.096
-0.351973 0.137516 278.544
-0.365384 0.138318 275.374
-0.379096 0.139138 275.122
-0.393113 0.139976 275.102
-0.407443 0.140834 275.1
-0.42209 0.14171 275.1
-0.43706 0.142607 275.1
0.00517948 0.123423 2619.07
0.00020956 0.123729 2613.21
-0.00488646 0.124044 2607.5
-0.0101114 0.124366 2599.44
-0.015468 0.124698 2589.25
-0.0209593 0.125038 2577.39
-0.0265882 0.125387 2564.35
-0.0323577 0.125745 2550.62
-0.0382709 0.126112 2536.64
-0.0443308 0.126489 2522.79
-0.0505408 0.126876 2509.36
-0.0569041 0.127273 2496.58
-0.0634239 0.12768 2484.56
-0.0701038 0.128097 2473.37
-0.0769472 0.128525 2463.01
-0.0839576 0.128964 2453.46
-0.0911386 0.129414 2444.66
-0.0984939 0.129875 2436.51
-0.106027 0.130347 2428.94
-0.113743 0.130832 2421.86
-0.121644 0.131328 2415.2
-0.129734 0.131837 2408.88
-0.138019 0.132358 2402.84
-0.146501 0.132892 2397.01
-0.155186 0.133439 2391.36
-0.164076 0.133999 2385.83
-0.173178 0.134573 2380.38
-0.182494 0.13516 2374.99
-0.19203 0.135762 2369.6
-0.20179 0.136378 2364.2
-0.211779 0.137009 2358.76
-0.222002 0.137654 2353.25
-0.232462 0.138315 2347.65
-0.243166 0.138992 2341.92
-0.254117 0.139684 2335.99
-0.265322 0.140393 2329.56
-0.276784 0.141118 2321.2
-0.28851 0.14186 2303.32
-0.300504 0.142619 2234.99
-0.312772 0.143396 1893.2
-0.325319 0.144191 782.538
-0.338149 0.145004 317.651
-0.35127 0.145835 278.593
-0.364686 0.146686 275.378
-0.378402 0.147556 275.122
-0.392425 0.148445 275.102
-0.406759 0.149355 275.1
-0.421411 0.150286 275.1
-0.436387 0.151237 275.1
0.0060801 0.130486 2617.82
0.00110738 0.13081 2612.01
-0.00399145 0.131143 2606.33
-0.00921923 0.131484 2598.29
-0.0145788 0.131835 2588.13
-0.020073 0.132195 2576.3
-0.0257048 0.132564 2563.29
-0.0314773 0.132943 2549.58
-0.0373934 0.133332 2535.62
-0.0434565 0.133732 2521.78
-0.0496695 0.134141 2508.37
-0.0560359 0.134561 2495.58
-0.062559 0.134992 2483.56
-0.0692421 0.135433 2472.37
-0.0760887 0.135886 2462.01
-0.0831023 0.136351 2452.46
-0.0902867 0.136827 2443.64
-0.0976454 0.137315 2435.49
-0.105182 0.137815 2427.91
-0.112901 0.138328 2420.82
-0.120805 0.138853 2414.15
-0.1289 0.139391 2407.82
-0.137188 0.139943 2401.76
-0.145674 0.140508 2395.93
-0.154362 0.141087 2390.26
-0.163256 0.141679 2384.72
-0.172361 0.142287 2379.26
-0.181682 0.142908 2373.85
-0.191221 0.143545 2368.45
-0.200986 0.144197 2363.04
-0.210978 0.144864 2357.58
-0.221205 0.145548 2352.06
-0.231669 0.146247 2346.44
-0.242377 0.146963 2340.69
-0.253333 0.147696 2334.75
-0.264541 0.148445 2328.31
-0.276008 0.149213 2319.96
-0.287738 0.149998 2302.19
-0.299737 0.150801 2234.54
-0.312009 0.151623 1896.34
-0.32456 0.152464 789.598
-0.337396 0.153324 318.24
-0.350521 0.154204 278.644
-0.363942 0.155104 275.382
-0.377663 0.156024 275.123
-0.391691 0.156965 275.102
-0.406031 0.157928 275.1
-0.420688 0.158912 275.1
-0.435669 0.159919 275.1
0.00703712 0.137587 2616.48
0.00206142 0.137929 2610.72
-0.00304043 0.138281 2605.07
-0.00827126 0.138641 2597.06
-0.0136339 0.139011 2586.93
-0.0191312 0.139392 2575.13
-0.0247662 0.139782 2562.14
-0.0305418 0.140182 2548.46
-0.0364612 0.140593 2534.51
-0.0425275 0.141014 2520.69
-0.0487438 0.141446 2507.28
-0.0551136 0.14189 2494.5
-0.06164 0.142344 2482.49
-0.0683265 0.142811 2471.29
-0.0751765 0.143289 2460.93
-0.0821937 0.143779 2451.37
-0.0893816 0.144282 2442.55
-0.0967438 0.144797 2434.38
-0.104284 0.145325 2426.8
-0.112007 0.145866 2419.7
-0.119915 0.146421 2413.02
-0.128013 0.146989 2406.68
-0.136305 0.147571 2400.61
-0.144794 0.148167 2394.76
-0.153486 0.148778 2389.08
-0.162385 0.149404 2383.52
-0.171494 0.150045 2378.05
-0.180818 0.150701 2372.63
-0.190362 0.151373 2367.22
-0.20013 0.152061 2361.79
-0.210127 0.152765 2356.32
-0.220358 0.153487 2350.78
-0.230827 0.154225 2345.15
-0.241539 0.15498 2339.39
-0.252499 0.155753 2333.43
-0.263712 0.156545 2326.99
-0.275184 0.157355 2318.64
-0.286919 0.158183 2300.98
-0.298922 0.159031 2234.04
-0.311199 0.159898 1899.58
-0.323755 0.160786 797.063
-0.336596 0.161693 318.865
-0.349726 0.162622 278.699
-0.363152 0.163571 275.387
-0.376878 0.164543 275.123
-0.390912 0.165536 275.102
-0.405257 0.166552 275.1
-0.41992 0.16759 275.1
-0.434907 0.168653 275.1
0.00805148 0.144726 2615.05
0.00307259 0.145087 2609.35
-0.00203248 0.145457 2603.72
-0.00726655 0.145837 2595.74
-0.0126325 0.146227 2585.65
-0.0181331 0.146627 2573.87
-0.0237714 0.147038 2560.91
-0.0295504 0.14746 2547.25
-0.0354732 0.147892 2533.33
-0.041543 0.148336 2519.52
-0.0477628 0.148791 2506.12
-0.0541361 0.149258 2493.34
-0.0606661 0.149737 2481.33
-0.0673562 0.150229 2470.13