VARIABLES = "X", "Y", "u,m_s", "v,m_s" 
ZONE I= 49, J= 149, DATAPACKING=POINT
-0.00243344 0.00315472 6.81076 8.77946
-0.00738272 0.00316244 9.88547 8.72938
-0.0124575 0.00317039 16.212 8.64789
-0.0176607 0.00317854 22.7928 8.55602
-0.0229951 0.00318692 29.4588 8.4586
-0.0284636 0.00319552 36.1973 8.35801
-0.0340692 0.00320435 43.0057 8.25606
-0.0398149 0.00321341 49.8826 8.15432
-0.0457038 0.00322271 56.8284 8.05417
-0.0517391 0.00323225 63.8444 7.95674
-0.0579239 0.00324204 70.9331 7.86291
-0.0642617 0.00325209 78.0977 7.77333
-0.0707556 0.00326239 85.3427 7.68842
-0.0774091 0.00327296 92.6729 7.60846
-0.0842256 0.00328379 100.094 7.53358
-0.0912088 0.0032949 107.611 7.46383
-0.0983623 0.0033063 115.232 7.39923
-0.10569 0.00331798 122.963 7.33973
-0.113195 0.00332995 130.812 7.28535
-0.120881 0.00334222 138.785 7.23605
-0.128753 0.0033548 146.891 7.19185
-0.136814 0.00336769 155.139 7.15279
-0.145068 0.0033809 163.538 7.11893
-0.15352 0.00339443 172.097 7.09038
-0.162174 0.00340829 180.827 7.06731
-0.171034 0.0034225 189.74 7.04992
-0.180103 0.00343704 198.85 7.03849
-0.189388 0.00345194 208.169 7.03336
-0.198891 0.0034672 217.716 7.03492
-0.208619 0.00348283 227.506 7.0436
-0.218574 0.00349883 237.559 7.0598
-0.228763 0.00351521 247.896 7.08367
-0.239189 0.00353198 258.536 7.11458
-0.249857 0.00354914 269.505 7.14923
-0.260774 0.00356671 280.861 7.17629
-0.271942 0.0035847 292.879 7.16194
-0.283368 0.0036031 307.125 7.01514
-0.295057 0.00362194 332.227 6.51787
-0.307013 0.00364121 413.695 5.24379
-0.319242 0.00366093 762.292 2.70242
-0.331749 0.0036811 1592.19 0.394026
-0.34454 0.00370174 1951.24 0.0521418
-0.357619 0.00372286 1995.35 0.00440346
-0.370992 0.00374445 1999.58 0.000373861
-0.384665 0.00376654 1999.96 3.33646e-05
-0.398643 0.00378914 2000 3.09322e-06
-0.41293 0.00381225 2000 2.9273e-07
-0.427533 0.00383588 2000 2.79526e-08
-0.442457 0.00386005 2000 2.74257e-09
-0.00239145 0.00948519 6.87326 12.666
-0.00734078 0.00950842 9.92721 12.5956
-0.0124157 0.00953231 16.2277 12.48
-0.0176189 0.00955685 22.7889 12.3512
-0.0229534 0.00958204 29.4409 12.214
-0.028422 0.0096079 36.1699 12.0715
-0.0340276 0.00963445 42.9719 11.9263
-0.0397735 0.0096617 49.845 11.7808
-0.0456625 0.00968966 56.7887 11.6373
-0.0516979 0.00971835 63.8038 11.4973
-0.0578829 0.00974779 70.8926 11.3623
-0.0642207 0.00977799 78.0579 11.2332
-0.0707147 0.00980896 85.3039 11.1107
-0.0773684 0.00984073 92.6352 10.9952
-0.0841851 0.00987332 100.057 10.8869
-0.0911684 0.00990673 107.575 10.7859
-0.0983219 0.00994098 115.197 10.6922
-0.105649 0.0099761 122.927 10.6058
-0.113154 0.0100121 130.775 10.5267
-0.120841 0.010049 138.746 10.4548
-0.128713 0.0100868 146.85 10.3902
-0.136774 0.0101256 155.093 10.3328
-0.145029 0.0101653 163.486 10.2828
-0.153481 0.010206 172.037 10.2402
-0.162135 0.0102477 180.758 10.2053
-0.170995 0.0102904 189.658 10.1782
-0.180065 0.0103341 198.75 10.1593
-0.189349 0.0103789 208.048 10.1488
-0.198853 0.0104248 217.566 10.147
-0.20858 0.0104718 227.317 10.1541
-0.218536 0.0105199 237.318 10.17
-0.228724 0.0105691 247.582 10.1942
-0.239151 0.0106196 258.121 10.2247
-0.24982 0.0106712 268.946 10.2567
-0.260736 0.010724 280.098 10.2772
-0.271905 0.0107781 291.832 10.2518
-0.283331 0.0108334 305.701 10.0904
-0.29502 0.01089 330.332 9.56586
-0.306976 0.010948 411.115 8.15652
-0.319205 0.0110073 758.438 4.8648
-0.331713 0.0110679 1589.31 1.07912
-0.344503 0.01113 1950.9 0.142039
-0.357583 0.0111935 1995.33 0.0118709
-0.370957 0.0112584 1999.57 0.000982074
-0.38463 0.0113249 1999.96 8.40855e-05
-0.398608 0.0113928 2000 7.41046e-06
-0.412896 0.0114623 2000 6.65266e-07
-0.427499 0.0115333 2000 6.04367e-08
-0.442422 0.011606 2000 5.71291e-09
-0.00230942 0.0158577 7.05401 20.715
-0.00725886 0.0158966 10.0961 20.6091
-0.0123339 0.0159365 16.3744 20.4286
-0.0175373 0.0159775 22.9152 20.2254
-0.0228719 0.0160197 29.5495 20.0067
-0.0283407 0.0160629 36.2632 19.7778
-0.0339466 0.0161073 43.0522 19.5434
-0.0396926 0.0161529 49.9141 19.3077
-0.0455819 0.0161996 56.8482 19.0743
-0.0516175 0.0162476 63.855 18.8463
-0.0578027 0.0162968 70.9363 18.6258
-0.0641408 0.0163473 78.0947 18.4147
-0.0706351 0.0163991 85.3341 18.214
-0.077289 0.0164522 92.6588 18.0246
-0.084106 0.0165067 100.074 17.8467
-0.0910895 0.0165626 107.585 17.6806
-0.0982434 0.0166198 115.198 17.5264
-0.105571 0.0166785 122.92 17.384
-0.113077 0.0167387 130.758 17.2533
-0.120763 0.0168004 138.718 17.1343
-0.128636 0.0168637 146.808 17.027
-0.136697 0.0169285 155.036 16.9314
-0.144952 0.0169949 163.41 16.8476
-0.153405 0.0170629 171.94 16.7755
-0.162059 0.0171326 180.635 16.7156
-0.170919 0.017204 189.505 16.6678
-0.179989 0.0172771 198.562 16.6323
-0.189274 0.017352 207.815 16.6093
-0.198778 0.0174288 217.279 16.5987
-0.208506 0.0175073 226.964 16.5999
-0.218462 0.0175877 236.882 16.6115
-0.228651 0.0176701 247.043 16.631
-0.239077 0.0177544 257.454 16.6529
-0.249747 0.0178407 268.122 16.6665
-0.260663 0.017929 279.086 16.6499
-0.271832 0.0180194 290.614 16.5545
-0.283259 0.018112 304.285 16.2694
-0.294948 0.0182066 328.746 15.5362
-0.306905 0.0183035 409.202 13.7314
-0.319135 0.0184027 755.31 9.21818
-0.331642 0.0185041 1586.63 2.61989
-0.344434 0.0186078 1950.54 0.32326
-0.357514 0.018714 1995.29 0.0279771
-0.370888 0.0188226 1999.57 0.00234298
-0.384561 0.0189336 1999.96 0.000198211
-0.39854 0.0190472 2000 1.69871e-05
-0.412828 0.0191634 2000 1.47129e-06
-0.427432 0.0192822 2000 1.286e-07
-0.442357 0.0194037 2000 1.16338e-08
-0.00218649 0.0222722 7.34607 29.0309
-0.00713611 0.0223268 10.3785 28.8913
-0.0122114 0.0223829 16.6357 28.6463
-0.017415 0.0224405 23.1556 28.3683
-0.0227499 0.0224997 29.7698 28.0678
-0.028219 0.0225605 36.4647 27.7517
-0.0338252 0.0226228 43.2359 27.4269
-0.0395716 0.0226868 50.0813 27.0993
-0.0454612 0.0227525 56.9998 26.7742
-0.0514972 0.0228199 63.9919 26.4557
-0.0576828 0.022889 71.0591 26.1474
-0.0640212 0.02296 78.2038 25.8516
-0.0705159 0.0230327 85.4296 25.57
-0.0771702 0.0231073 92.7407 25.3038
-0.0839876 0.0231839 100.142 25.0535
-0.0909716 0.0232623 107.638 24.8194
-0.0981258 0.0233428 115.236 24.6017
-0.105454 0.0234253 122.942 24.4003
-0.11296 0.0235098 130.761 24.2151
-0.120647 0.0235965 138.701 24.046
-0.12852 0.0236853 146.769 23.8929
-0.136582 0.0237763 154.973 23.7558
-0.144837 0.0238696 163.32 23.6347
-0.15329 0.0239652 171.819 23.5296
-0.161945 0.0240631 180.479 23.4405
-0.170805 0.0241634 189.309 23.3675
-0.179876 0.0242661 198.318 23.3104
-0.189162 0.0243713 207.519 23.269
-0.198666 0.0244791 216.92 23.2426
-0.208394 0.0245894 226.533 23.2296
-0.218351 0.0247024 236.368 23.2275
-0.22854 0.0248181 246.433 23.2314
-0.238968 0.0249365 256.737 23.2332
-0.249637 0.0250577 267.291 23.2185
-0.260555 0.0251818 278.144 23.1609
-0.271724 0.0253088 289.584 23.0082
-0.283152 0.0254387 303.223 22.6508
-0.294841 0.0255717 327.704 21.8352
-0.306799 0.0257078 407.99 19.8546
-0.319029 0.0258471 752.833 14.2629
-0.331537 0.0259896 1584.09 4.42126
-0.344329 0.0261353 1950.17 0.537385
-0.35741 0.0262844 1995.25 0.0476977
-0.370785 0.0264369 1999.57 0.00406327
-0.384459 0.0265929 1999.96 0.00034608
-0.398438 0.0267525 2000 2.96099e-05
-0.412728 0.0269156 2000 2.54467e-06
-0.427333 0.0270825 2000 2.19752e-07
-0.442259 0.0272532 2000 1.94965e-08
-0.00202176 0.0287285 7.74759 37.3901
-0.00697167 0.028799 10.7706 37.2177
-0.0120472 0.0288714 17.006 36.9091
-0.0172512 0.0289457 23.5035 36.5574
-0.0225866 0.0290221 30.0954 36.1758
-0.028056 0.0291005 36.7684 35.7735
-0.0336627 0.0291809 43.5182 35.359
-0.0394095 0.0292635 50.3427 34.9401
-0.0452996 0.0293482 57.2409 34.5235
-0.0513361 0.0294352 64.2131 34.1149
-0.0575222 0.0295244 71.2607 33.7185
-0.0638611 0.0296159 78.3861 33.3377
-0.0703563 0.0297097 85.5926 32.9746
-0.0770112 0.029806 92.8842 32.6309
-0.0838291 0.0299047 100.265 32.3072
-0.0908137 0.030006 107.741 32.0041
-0.0979685 0.0301098 115.318 31.7216
-0.105297 0.0302162 123.001 31.4598
-0.112804 0.0303253 130.796 31.2184
-0.120492 0.0304371 138.711 30.9973
-0.128365 0.0305517 146.751 30.7965
-0.136428 0.0306691 154.925 30.6157
-0.144684 0.0307894 163.24 30.4548
-0.153137 0.0309127 171.703 30.3138
-0.161793 0.0310391 180.324 30.1926
-0.170654 0.0311684 189.11 30.0908
-0.179725 0.031301 198.072 30.0082
-0.189011 0.0314367 207.22 29.9441
-0.198517 0.0315757 216.564 29.8972
-0.208246 0.0317181 226.115 29.8652
-0.218203 0.0318638 235.884 29.8447
-0.228393 0.0320131 245.88 29.8295
-0.238821 0.0321658 256.116 29.8104
-0.249492 0.0323222 266.611 29.7718
-0.26041 0.0324823 277.426 29.6879
-0.27158 0.0326461 288.869 29.5112
-0.283008 0.0328138 302.571 29.1452
-0.294699 0.0329854 327.146 28.3508
-0.306657 0.0331609 407.278 26.3104
-0.318888 0.0333406 750.769 19.6458
-0.331397 0.0335244 1581.67 6.32908
-0.34419 0.0337124 1949.8 0.766265
-0.357271 0.0339047 1995.22 0.0691177
-0.370647 0.0341015 1999.57 0.00596412
-0.384323 0.0343027 1999.96 0.000512172
-0.398303 0.0345086 2000 4.40008e-05
-0.412594 0.0347191 2000 3.78377e-06
-0.4272 0.0349344 2000 3.26014e-07
-0.442128 0.0351546 2000 2.87008e-08
-0.00181435 0.0352266 8.25861 45.7794
-0.00676466 0.035313 11.272 45.5744
-0.0118407 0.0354018 17.4841 45.2027
-0.0170451 0.035493 23.9572 44.7776
-0.022381 0.0355867 30.5245 44.3155
-0.027851 0.0356828 37.1726 43.8274
-0.0334582 0.0357815 43.8978 43.3236
-0.0392056 0.0358828 50.6978 42.8137
-0.0450963 0.0359867 57.5717 42.3059
-0.0511334 0.0360933 64.5198 41.8071
-0.0573201 0.0362027 71.5434 41.3227
-0.0636597 0.036315 78.645 40.8566
-0.0701556 0.0364301 85.8275 40.4117
-0.0768111 0.0365482 93.0949 39.9898
-0.0836298 0.0366693 100.452 39.592
-0.0906151 0.0367934 107.903 39.2189
-0.0977706 0.0369208 115.453 38.8706
-0.1051 0.0370513 123.109 38.5472
-0.112607 0.0371851 130.877 38.2483
-0.120296 0.0373222 138.763 37.9738
-0.12817 0.0374627 146.773 37.7236
-0.136234 0.0376068 154.914 37.4974
-0.144491 0.0377544 163.195 37.2949
-0.152945 0.0379056 171.622 37.1161
-0.161601 0.0380605 180.204 36.9605
-0.170463 0.0382192 188.951 36.828
-0.179535 0.0383817 197.871 36.7178
-0.188822 0.0385482 206.974 36.6289
-0.198328 0.0387187 216.273 36.5599
-0.208058 0.0388933 225.779 36.5082
-0.218016 0.039072 235.504 36.4697
-0.228208 0.0392551 245.462 36.4382
-0.238637 0.0394424 255.669 36.4045
-0.249308 0.0396342 266.151 36.3542
-0.260227 0.0398305 276.981 36.2649
-0.271399 0.0400315 288.48 36.0977
-0.282827 0.0402371 302.283 35.7723
-0.294519 0.0404475 326.955 35.0567
-0.306478 0.0406629 406.892 32.9852
-0.318711 0.0408832 748.952 25.1892
-0.331221 0.0411086 1579.3 8.28178
-0.344015 0.0413392 1949.43 1.002
-0.357097 0.0415751 1995.18 0.0913351
-0.370474 0.0418164 1999.56 0.00795201
-0.384151 0.0420632 1999.96 0.000687454
-0.398133 0.0423156 2000 5.93273e-05
-0.412425 0.0425738 2000 5.11535e-06
-0.427033 0.0428378 2000 4.41195e-07
-0.441963 0.0431079 2000 3.87379e-08
-0.00156336 0.0417662 8.88019 54.1971
-0.00651419 0.0418688 11.8835 53.9594
-0.0115908 0.0419741 18.0705 53.5246
-0.0167958 0.0420823 24.5171 53.0264
-0.0221323 0.0421934 31.0573 52.484
-0.027603 0.0423074 37.678 51.9102
-0.0332109 0.0424245 44.3756 51.3173
-0.038959 0.0425446 51.1479 50.7166
-0.0448504 0.0426678 57.9942 50.1176
-0.0508883 0.0427943 64.9147 49.5286
-0.0570758 0.0429241 71.9109 48.9559
-0.0634162 0.0430572 78.9849 48.4042
-0.0699129 0.0431937 86.14 47.8771
-0.0765693 0.0433338 93.3798 47.3766
-0.0833888 0.0434774 100.709 46.9041
-0.090375 0.0436246 108.132 46.4603
-0.0975314 0.0437756 115.654 46.0454
-0.104862 0.0439304 123.281 45.6594
-0.11237 0.0440891 131.018 45.3021
-0.12006 0.0442517 138.873 44.9733
-0.127935 0.0444184 146.852 44.6726
-0.135999 0.0445892 154.962 44.3999
-0.144257 0.0447643 163.209 44.1549
-0.152712 0.0449436 171.603 43.9372
-0.161369 0.0451273 180.151 43.7467
-0.170233 0.0453155 188.863 43.5827
-0.179306 0.0455083 197.749 43.4446
-0.188594 0.0457057 206.82 43.3314
-0.198101 0.0459079 216.088 43.2415
-0.207832 0.046115 225.567 43.1722
-0.217791 0.046327 235.27 43.1198
-0.227984 0.046544 245.215 43.0783
-0.238414 0.0467662 255.423 43.0396
-0.249086 0.0469937 265.924 42.9917
-0.260007 0.0472265 276.8 42.917
-0.271179 0.0474648 288.376 42.786
-0.282609 0.0477087 302.283 42.5317
-0.294302 0.0479582 327.024 41.9165
-0.306263 0.0482136 406.71 39.7973
-0.318496 0.0484749 747.262 30.8003
-0.331008 0.0487422 1576.94 10.2527
-0.343803 0.0490156 1949.06 1.24113
-0.356887 0.0492954 1995.15 0.113922
-0.370266 0.0495815 1999.56 0.00997971
-0.383944 0.0498742 1999.96 0.000867043
-0.397927 0.0501736 2000 7.51137e-05
-0.412221 0.0504798 2000 6.495e-06
-0.426831 0.0507929 2000 5.61294e-07
-0.441764 0.0511132 2000 4.92624e-08
-0.00126787 0.0483474 9.61394 62.6414
-0.00621937 0.0484661 12.6067 62.3708
-0.0112966 0.0485881 18.7668 61.8732
-0.0165025 0.0487134 25.1847 61.3019
-0.0218397 0.0488421 31.6955 60.6792
-0.0273112 0.0489741 38.2864 60.0198
-0.0329199 0.0491096 44.9538 59.3379
-0.0386689 0.0492487 51.6957 58.6463
-0.0445612 0.0493915 58.5116 57.9561
-0.0506 0.0495379 65.4017 57.2768
-0.0567884 0.0496882 72.3676 56.6156
-0.0631298 0.0498423 79.4114 55.9782
-0.0696275 0.0500004 86.5363 55.3685
-0.0762849 0.0501626 93.746 54.789
-0.0831054 0.0503289 101.045 54.2415
-0.0900926 0.0504994 108.438 53.7265
-0.0972501 0.0506743 115.929 53.2446
-0.104582 0.0508535 123.526 52.7956
-0.112091 0.0510373 131.234 52.3794
-0.119782 0.0512256 139.058 51.9957
-0.127658 0.0514186 147.006 51.6443
-0.135723 0.0516164 155.086 51.3248
-0.143982 0.0518191 163.303 51.0371
-0.152439 0.0520268 171.668 50.7807
-0.161097 0.0522395 180.187 50.5554
-0.169961 0.0524574 188.872 50.3609
-0.179036 0.0526806 197.734 50.1963
-0.188325 0.0529093 206.783 50.0608
-0.197834 0.0531434 216.033 49.9528
-0.207566 0.0533831 225.5 49.8702
-0.217527 0.0536286 235.199 49.8094
-0.22772 0.0538799 245.15 49.7656
-0.238152 0.0541372 255.377 49.7319
-0.248826 0.0544006 265.915 49.6992
-0.259747 0.0546702 276.848 49.655
-0.270921 0.0549461 288.503 49.5778
-0.282353 0.0552285 302.499 49.4096
-0.294047 0.0555174 327.271 48.8943
-0.306009 0.0558131 406.65 46.6919
-0.318244 0.0561156 745.618 36.4345
-0.330757 0.0564251 1574.53 12.2328
-0.343554 0.0567418 1948.68 1.48253
-0.35664 0.0570657 1995.11 0.136727
-0.37002 0.057397 1999.56 0.0120282
-0.3837 0.0577359 1999.96 0.00104878
-0.397685 0.0580825 2000 9.11317e-05
-0.411981 0.0584371 2000 7.89993e-06
-0.426594 0.0587996 2000 6.84203e-07
-0.441529 0.0591705 2000 6.01403e-08
-0.000926992 0.0549698 10.4617 71.1105
-0.0058793 0.0551049 13.4434 70.8071
-0.0109574 0.0552437 19.5748 70.2466
-0.0161641 0.0553862 25.9621 69.6024
-0.0215023 0.0555326 32.4415 68.8994
-0.0269747 0.0556828 39.0003 68.1545
-0.0325844 0.0558369 45.6352 67.3835
-0.0383344 0.0559951 52.3444 66.601
-0.0442277 0.0561575 59.1276 65.8196
-0.0502676 0.0563241 65.9851 65.0498
-0.0564571 0.056495 72.9184 64.3002
-0.0627996 0.0566703 79.93 63.5769
-0.0692984 0.0568502 87.0228 62.8845
-0.075957 0.0570347 94.2008 62.2259
-0.0827787 0.0572238 101.468 61.6031
-0.0897671 0.0574178 108.83 61.0169
-0.0969258 0.0576167 116.291 60.4678
-0.104259 0.0578205 123.857 59.9558
-0.111769 0.0580295 131.535 59.4807
-0.119461 0.0582437 139.33 59.0423
-0.127339 0.0584633 147.25 58.6403
-0.135405 0.0586883 155.301 58.2745
-0.143666 0.0589188 163.492 57.9447
-0.152124 0.059155 171.832 57.6506
-0.160783 0.059397 180.329 57.392
-0.169649 0.0596448 188.994 57.1685
-0.178725 0.0598987 197.838 56.9798
-0.188016 0.0601587 206.875 56.825
-0.197526 0.060425 216.118 56.7029
-0.207259 0.0606977 225.584 56.6117
-0.217221 0.0609769 235.29 56.5486
-0.227417 0.0612628 245.259 56.5097
-0.237849 0.0615554 255.514 56.4897
-0.248525 0.0618549 266.095 56.4825
-0.259448 0.0621615 277.086 56.4796
-0.270624 0.0624754 288.811 56.4662
-0.282057 0.0627965 302.873 56.3878
-0.293753 0.0631251 327.639 55.9602
-0.305717 0.0634614 406.661 53.637
-0.317954 0.0638055 743.961 42.0769
-0.330469 0.0641575 1572.05 14.2224
-0.343267 0.0645176 1948.29 1.72622
-0.356355 0.064886 1995.07 0.159735
-0.369737 0.0652628 1999.55 0.0140944
-0.383419 0.0656483 1999.96 0.00123213
-0.397406 0.0660425 2000 0.000107302
-0.411704 0.0664457 2000 9.31997e-06
-0.426319 0.066858 2000 8.08682e-07
-0.441257 0.0672797 2000 7.11959e-08
-0.000539809 0.0616335 11.4256 79.6027
-0.00549309 0.061785 14.3958 79.2665
-0.0105722 0.0619407 20.4969 78.6433
-0.01578 0.0621006 26.8518 77.9262
-0.0211192 0.0622647 33.2977 77.143
-0.0265927 0.0624332 39.8225 76.3126
-0.0322035 0.0626062 46.423 75.4526
-0.0379547 0.0627836 53.0976 74.5792
-0.0438492 0.0629658 59.8461 73.7066
-0.0498903 0.0631527 66.6691 72.8465
-0.0560811 0.0633444 73.5683 72.0083
-0.0624249 0.0635411 80.546 71.1992
-0.068925 0.0637428 87.6055 70.4242
-0.0755848 0.0639497 94.7506 69.6866
-0.0824079 0.0641619 101.986 68.9887
-0.0893977 0.0643795 109.316 68.3314
-0.0965578 0.0646026 116.746 67.7154
-0.103892 0.0648313 124.282 67.1407
-0.111404 0.0650657 131.931 66.6072
-0.119097 0.065306 139.698 66.1147
-0.126976 0.0655523 147.592 65.6629
-0.135045 0.0658047 155.619 65.2518
-0.143307 0.0660632 163.787 64.8812
-0.151766 0.0663282 172.106 64.5509
-0.160427 0.0665996 180.586 64.2609
-0.169295 0.0668776 189.237 64.0109
-0.178372 0.0671624 198.071 63.8009
-0.187664 0.0674541 207.102 63.6302
-0.197176 0.0677528 216.345 63.4981
-0.206911 0.0680586 225.817 63.403
-0.216875 0.0683718 235.537 63.343
-0.227072 0.0686924 245.527 63.3151
-0.237507 0.0690206 255.815 63.3158
-0.248184 0.0693566 266.437 63.341
-0.259109 0.0697005 277.479 63.3862
-0.270287 0.0700525 289.261 63.4405
-0.281722 0.0704127 303.365 63.4489
-0.29342 0.0707813 328.093 63.0923
-0.305385 0.0711585 406.715 60.6153
-0.317624 0.0715444 742.252 47.727
-0.330141 0.0719392 1569.43 16.2274
-0.342942 0.0723432 1947.88 1.97309
-0.356031 0.0727564 1995.03 0.183021
-0.369416 0.073179 1999.55 0.0161829
-0.3831 0.0736113 1999.96 0.00141733
-0.397089 0.0740534 2000 0.000123637
-0.41139 0.0745056 2000 1.07547e-05
-0.426007 0.0749681 2000 9.34377e-07
-0.440947 0.075441 2000 8.22879e-08
-0.00010541 0.0683381 12.5074 88.1164
-0.00505982 0.0685062 15.466 87.7476
-0.0101401 0.0686789 21.5353 87.0618
-0.015349 0.0688563 27.8561 86.272
-0.0206895 0.0690384 34.2671 85.4088
-0.0261643 0.0692253 40.7561 84.493
-0.0317764 0.0694172 47.3204 83.5441
-0.0375289 0.0696141 53.9588 82.5799
-0.0434248 0.0698162 60.6711 81.6162
-0.0494673 0.0700235 67.4581 80.6659
-0.0556595 0.0702362 74.3218 79.7394
-0.0620047 0.0704544 81.2645 78.8447
-0.0685063 0.0706782 88.2897 77.9873
-0.0751676 0.0709078 95.4014 77.1711
-0.0819922 0.0711432 102.604 76.3984
-0.0889835 0.0713845 109.902 75.6706
-0.0961452 0.071632 117.302 74.9882
-0.103481 0.0718857 124.809 74.3515
-0.110994 0.0721458 132.43 73.7604
-0.11869 0.0724124 140.172 73.2147
-0.12657 0.0726856 148.041 72.7145
-0.13464 0.0729655 156.046 72.2594
-0.142904 0.0732524 164.195 71.8496
-0.151365 0.0735463 172.497 71.4851
-0.160028 0.0738473 180.963 71.1659
-0.168897 0.0741558 189.604 70.8921
-0.177977 0.0744717 198.432 70.6637
-0.187271 0.0747952 207.462 70.4804
-0.196784 0.0751265 216.709 70.3419
-0.206521 0.0754658 226.191 70.2472
-0.216487 0.0758132 235.927 70.1949
-0.226686 0.0761688 245.94 70.1828
-0.237122 0.0765329 256.257 70.2088
-0.247802 0.0769056 266.916 70.2709
-0.258729 0.0772871 277.999 70.3671
-0.269908 0.0776775 289.821 70.4891
-0.281346 0.0780771 303.947 70.5779
-0.293046 0.078486 328.612 70.2753
-0.305014 0.0789043 406.795 67.6199
-0.317254 0.0793324 740.469 53.393
-0.329774 0.0797703 1566.67 18.2554
-0.342577 0.0802184 1947.44 2.22405
-0.355669 0.0806767 1994.98 0.206681
-0.369056 0.0811455 1999.54 0.018303
-0.382742 0.081625 1999.96 0.00160518
-0.396734 0.0821154 2000 0.000140191
-0.411038 0.082617 2000 1.22079e-05
-0.425657 0.0831299 2000 1.06158e-06
-0.440599 0.0836545 2000 9.3507e-08
0.000377117 0.0750835 13.7093 96.6504
-0.00457859 0.0752683 16.6561 96.2491
-0.00966021 0.0754582 22.6924 95.5011
-0.0148705 0.0756532 28.9777 94.6388
-0.0202123 0.0758534 35.3521 93.6957
-0.0256886 0.0760589 41.8039 92.6947
-0.0313022 0.0762699 48.3306 91.6571
-0.0370562 0.0764864 54.9313 90.6024
-0.0429536 0.0767085 61.606 89.5477
-0.0489976 0.0769364 68.356 88.5075
-0.0551914 0.0771703 75.183 87.4931
-0.0615382 0.0774102 82.09 86.5131
-0.0680414 0.0776562 89.0803 85.5738
-0.0747044 0.0779086 96.158 84.6794
-0.0815307 0.0781674 103.328 83.8326
-0.0885237 0.0784327 110.595 83.0349
-0.0956872 0.0787048 117.965 82.2871
-0.103025 0.0789837 125.444 81.5893
-0.11054 0.0792696 133.038 80.9418
-0.118237 0.0795626 140.755 80.3443
-0.126119 0.079863 148.602 79.7969
-0.134191 0.0801707 156.587 79.2996
-0.142457 0.080486 164.719 78.8525
-0.15092 0.0808091 173.007 78.4558
-0.159585 0.0811401 181.462 78.1098
-0.168456 0.0814791 190.096 77.8146
-0.177537 0.0818264 198.921 77.5706
-0.186834 0.0821821 207.951 77.3779
-0.196349 0.0825463 217.204 77.2362
-0.206088 0.0829192 226.696 77.1452
-0.216056 0.0833011 236.447 77.1038
-0.226257 0.083692 246.481 77.1109
-0.236696 0.0840922 256.823 77.1654
-0.247378 0.0845019 267.511 77.2666
-0.258307 0.0849212 278.625 77.4145
-0.269489 0.0853504 290.473 77.6016
-0.280928 0.0857896 304.603 77.7629
-0.292631 0.086239 329.185 77.4999
-0.304601 0.0866989 406.897 74.6489
-0.316844 0.0871694 738.596 59.0834
-0.329366 0.0876508 1563.74 20.3134
-0.342172 0.0881432 1946.97 2.48016
-0.355267 0.088647 1994.94 0.230818
-0.368656 0.0891623 1999.54 0.0204637
-0.382345 0.0896893 1999.96 0.00179647
-0.39634 0.0902284 2000 0.000157038
-0.410646 0.0907796 2000 1.36856e-05
-0.425269 0.0913434 2000 1.19083e-06
-0.440214 0.09192 2000 1.04907e-07
0.000908689 0.0818694 15.0332 105.204
-0.0040485 0.0820711 17.9682 104.77
-0.00913162 0.0822783 23.9703 103.96
-0.0143435 0.0824911 30.2189 103.026
-0.0196869 0.0827096 36.5555 102.003
-0.0251647 0.0829338 42.9688 100.917
-0.0307799 0.083164 49.4566 99.7908
-0.0365356 0.0834002 56.0183 98.6459
-0.0424347 0.0836426 62.6544 97.5008
-0.0484804 0.0838913 69.3661 96.371
-0.054676 0.0841464 76.1557 95.2691
-0.0610246 0.0844082 83.0262 94.2044
-0.0675296 0.0846767 89.9811 93.1838
-0.0741945 0.084952 97.0247 92.212
-0.0810226 0.0852344 104.162 91.2919
-0.0880176 0.0855239 111.398 90.4253
-0.0951829 0.0858207 118.738 89.613
-0.102522 0.086125 126.189 88.8554
-0.11004 0.086437 133.758 88.1527
-0.117739 0.0867567 141.452 87.5048
-0.125623 0.0870844 149.278 86.9119
-0.133697 0.0874201 157.244 86.3741
-0.141965 0.0877642 165.36 85.8916
-0.15043 0.0881166 173.636 85.4648
-0.159097 0.0884777 182.082 85.0941
-0.16797 0.0888476 190.709 84.7799
-0.177054 0.0892265 199.532 84.5228
-0.186352 0.0896145 208.564 84.323
-0.19587 0.0900119 217.822 84.1808
-0.205612 0.0904187 227.323 84.096
-0.215582 0.0908353 237.088 84.068
-0.225785 0.0912618 247.137 84.0964
-0.236227 0.0916984 257.499 84.1809
-0.246911 0.0921454 268.208 84.322
-0.257842 0.0926028 279.342 84.5207
-0.269027 0.093071 291.205 84.7692
-0.280469 0.0935501 305.326 84.9954
-0.292174 0.0940404 329.81 84.7601
-0.304147 0.094542 407.017 81.7028
-0.316393 0.0950553 736.626 64.8069
-0.328917 0.0955805 1560.61 22.4086
-0.341726 0.0961177 1946.47 2.74244
-0.354824 0.0966672 1994.89 0.255536
-0.368216 0.0972293 1999.53 0.0226753
-0.381908 0.0978043 1999.96 0.00199213
-0.395906 0.0983923 2000 0.000174258
-0.410216 0.0989937 2000 1.51949e-05
-0.424842 0.0996087 2000 1.32276e-06
-0.43979 0.100238 2000 1.1654e-07
0.00149022 0.0886957 16.4811 113.775
-0.00346862 0.0889144 19.4042 113.31
-0.00855342 0.0891391 25.3712 112.438
-0.013767 0.0893698 31.5821 111.432
-0.0191121 0.0896066 37.8797 110.33
-0.0245917 0.0898498 44.2532 109.159
-0.0302088 0.0900993 50.7009 107.945
-0.0359663 0.0903554 57.2226 106.71
-0.0418673 0.0906182 63.8189 105.475
-0.0479149 0.0908879 70.4916 104.256
-0.0541124 0.0911645 77.243 103.067
-0.060463 0.0914483 84.0763 101.919
-0.06697 0.0917394 90.9954 100.818
-0.0736369 0.0920379 98.0046 99.7693
-0.0804671 0.092344 105.109 98.7768
-0.0874641 0.0926579 112.314 97.8423
-0.0946316 0.0929797 119.625 96.9667
-0.101973 0.0933096 127.049 96.1506
-0.109493 0.0936478 134.593 95.3941
-0.117194 0.0939944 142.264 94.6973
-0.125081 0.0943496 150.069 94.0606
-0.133157 0.0947136 158.018 93.484
-0.141427 0.0950866 166.12 92.9679
-0.149894 0.0954687 174.384 92.5129
-0.158564 0.0958602 182.82 92.1195
-0.167439 0.0962611 191.442 91.7884
-0.176525 0.0966718 200.262 91.5201
-0.185826 0.0970925 209.295 91.3154
-0.195347 0.0975232 218.557 91.1745
-0.205091 0.0979642 228.064 91.0976
-0.215063 0.0984158 237.838 91.0846
-0.225269 0.0988782 247.899 91.1355
-0.235713 0.0993514 258.273 91.2506
-0.2464 0.0998359 268.996 91.4312
-0.257334 0.100332 280.141 91.6788
-0.268522 0.100839 292.008 91.9849
-0.279966 0.101359 306.111 92.2693
-0.291674 0.10189 330.485 92.053
-0.30365 0.102434 407.159 88.7844
-0.315899 0.10299 734.555 70.5723
-0.328427 0.103559 1557.28 24.5482
-0.341238 0.104142 1945.94 3.01212
-0.354339 0.104737 1994.83 0.280954
-0.367735 0.105347 1999.53 0.0249474
-0.38143 0.10597 1999.96 0.00219298
-0.395432 0.106607 2000 0.000191922
-0.409745 0.107259 2000 1.67422e-05
-0.424374 0.107926 2000 1.45793e-06
-0.439326 0.108607 2000 1.28457e-07
0.00212263 0.0955621 18.0547 122.365
-0.00283804 0.0957979 20.9661 121.867
-0.00792471 0.0960402 26.8972 120.934
-0.0131402 0.096289 33.0693 119.856
-0.0184872 0.0965444 39.3268 118.675
-0.0239688 0.0968066 45.6595 117.421
-0.0295878 0.0970757 52.0661 116.119
-0.0353474 0.0973518 58.5467 114.795
-0.0412504 0.0976352 65.1023 113.47
-0.0473001 0.097926 71.735 112.163
-0.0534997 0.0982243 78.4475 110.888
-0.0598525 0.0985303 85.243 109.656
-0.0663617 0.0988441 92.1258 108.475
-0.0730308 0.099166 99.1002 107.351
-0.0798632 0.0994961 106.171 106.288
-0.0868625 0.0998345 113.345 105.286
-0.0940323 0.100182 120.627 104.349
-0.101376 0.100537 128.024 103.475
-0.108898 0.100902 135.543 102.667
-0.116602 0.101276 143.192 101.923
-0.124491 0.101659 150.977 101.243
-0.13257 0.102051 158.909 100.63
-0.140842 0.102453 166.996 100.082
-0.149312 0.102865 175.248 99.6003
-0.157984 0.103287 183.675 99.1859
-0.166862 0.10372 192.291 98.8395
-0.175951 0.104162 201.107 98.5617
-0.185255 0.104616 210.138 98.3534
-0.194778 0.10508 219.401 98.2153
-0.204524 0.105556 228.912 98.1475
-0.2145 0.106043 238.69 98.1504
-0.224709 0.106541 248.758 98.2243
-0.235155 0.107051 259.139 98.3698
-0.245845 0.107573 269.868 98.589
-0.256782 0.108108 281.017 98.8835
-0.267973 0.108655 292.881 99.2433
-0.27942 0.109215 306.957 99.5804
-0.291131 0.109788 331.212 99.3768
-0.30311 0.110374 407.323 95.8956
-0.315363 0.110974 732.382 76.385
-0.327894 0.111588 1553.73 26.7365
-0.340708 0.112215 1945.36 3.28981
-0.353813 0.112857 1994.78 0.307148
-0.367212 0.113514 1999.52 0.0272888
-0.380911 0.114186 1999.96 0.00239987
-0.394916 0.114873 2000 0.000210108
-0.409232 0.115576 2000 1.83345e-05
-0.423866 0.116294 2000 1.59697e-06
-0.438822 0.117029 2000 1.40713e-07
0.00280684 0.102468 19.7561 130.972
-0.00215586 0.102721 22.6558 130.442
-0.00724458 0.102982 28.5503 129.448
-0.0124621 0.103249 34.6826 128.299
-0.0178113 0.103523 40.8991 127.04
-0.023295 0.103804 47.1899 125.701
-0.0289162 0.104093 53.5543 124.313
-0.0346779 0.104389 59.9928 122.9
-0.0405832 0.104693 66.5068 121.486
-0.0466352 0.105005 73.0987 120.092
-0.0528371 0.105326 79.7713 118.731
-0.0591922 0.105654 86.5285 117.417
-0.0657038 0.105991 93.3743 116.157
-0.0723753 0.106336 100.313 114.959
-0.0792102 0.10669 107.351 113.825
-0.086212 0.107054 114.494 112.758
-0.0933843 0.107426 121.746 111.76
-0.100731 0.107808 129.116 110.83
-0.108255 0.108199 136.61 109.971
-0.115961 0.1086 144.236 109.181
-0.123853 0.109011 152.001 108.461
-0.131935 0.109432 159.915 107.811
-0.14021 0.109864 167.987 107.233
-0.148683 0.110306 176.226 106.726
-0.157357 0.110759 184.643 106.292
-0.166238 0.111223 193.25 105.932
-0.17533 0.111698 202.061 105.646
-0.184636 0.112184 211.088 105.435
-0.194162 0.112683 220.349 105.301
-0.203912 0.113193 229.859 105.243
-0.213891 0.113715 239.639 105.262
-0.224102 0.11425 249.708 105.359
-0.234552 0.114798 260.091 105.534
-0.245245 0.115358 270.82 105.791
-0.256185 0.115932 281.967 106.13
-0.267379 0.116519 293.821 106.54
-0.27883 0.117119 307.865 106.926
-0.290544 0.117734 331.992 106.731
-0.302527 0.118363 407.512 103.04
-0.314782 0.119007 730.106 82.2525
-0.327317 0.119665 1549.96 28.98
-0.340135 0.120338 1944.75 3.57662
-0.353243 0.121027 1994.72 0.334218
-0.366646 0.121732 1999.52 0.0297082
-0.380349 0.122453 1999.96 0.0026136
-0.394358 0.12319 2000 0.000228887
-0.408679 0.123944 2000 1.9978e-05
-0.423316 0.124715 2000 1.74043e-06
-0.438277 0.125503 2000 1.53355e-07
0.00354377 0.109414 21.587 139.596
-0.00142114 0.109685 24.4752 139.035
-0.0065121 0.109963 30.3322 137.98
-0.0117319 0.110248 36.424 136.76
-0.0170834 0.110541 42.5984 135.423
-0.0225694 0.110842 48.8463 134.001
-0.028193 0.111151 55.1675 132.526
-0.0339571 0.111467 61.5628 131.025
-0.0398648 0.111792 68.0342 129.523
-0.0459193 0.112126 74.5843 128.042
-0.0521237 0.112468 81.2164 126.596
-0.0584813 0.112819 87.9343 125.201
-0.0649955 0.113179 94.7425 123.864
-0.0716696 0.113548 101.646 122.591
-0.0785071 0.113927 108.65 121.388
-0.0855115 0.114315 115.76 120.257
-0.0926865 0.114713 122.983 119.199
-0.100036 0.115121 130.325 118.215
-0.107563 0.115539 137.794 117.306
-0.115272 0.115968 145.396 116.471