VARIABLES= "X", "Y", "Yw,m"
ZONE I= 50, J= 49, DATAPACKING=POINT
0.5 0.5 0.707107
0.5 1.5 1.58114
0.5 2.5 2.54951
0.5 3.5 3.53553
0.5 4.5 4.52769
0.5 5.5 5.52268
0.5 6.5 6.5192
0.5 7.5 7.51665
0.5 8.5 8.51469
0.5 9.5 9.51315
0.5 10.5 10.5119
0.5 11.5 11.5109
0.5 12.5 12.51
0.5 13.5 13.5093
0.5 14.5 14.5086
0.5 15.5 15.5081
0.5 16.5 16.5076
0.5 17.5 17.5071
0.5 18.5 18.5068
0.5 19.5 19.5064
0.5 20.5 20.5061
0.5 21.5 21.5058
0.5 22.5 22.5056
0.5 23.5 23.5053
0.5 24.5 24.5051
0.5 25.5 24.5051
0.5 26.5 23.5053
0.5 27.5 22.5056
0.5 28.5 21.5058
0.5 29.5 20.5061
0.5 30.5 19.5064
0.5 31.5 18.5068
0.5 32.5 17.5071
0.5 33.5 16.5076
0.5 34.5 15.5081
0.5 35.5 14.5086
0.5 36.5 13.5093
0.5 37.5 12.51
0.5 38.5 11.5109
0.5 39.5 10.5119
0.5 40.5 9.51315
0.5 41.5 8.51469
0.5 42.5 7.51665
0.5 43.5 6.5192
0.5 44.5 5.52268
0.5 45.5 4.52769
0.5 46.5 3.53553
0.5 47.5 2.54951
0.5 48.5 1.58114
0.5 49.5 0.707107
1.5 0.5 0.707107
1.5 1.5 1.58114
1.5 2.5 2.54951
1.5 3.5 3.53553
1.5 4.5 4.52769
1.5 5.5 5.52268
1.5 6.5 6.5192
1.5 7.5 7.51665
1.5 8.5 8.51469
1.5 9.5 9.51315
1.5 10.5 10.5119
1.5 11.5 11.5109
1.5 12.5 12.51
1.5 13.5 13.5093
1.5 14.5 14.5086
1.5 15.5 15.5081
1.5 16.5 16.5076
1.5 17.5 17.5071
1.5 18.5 18.5068
1.5 19.5 19.5064
1.5 20.5 20.5061
1.5 21.5 21.5058
1.5 22.5 22.5056
1.5 23.5 23.5053
1.5 24.5 24.5051
1.5 25.5 24.5051
1.5 26.5 23.5053
1.5 27.5 22.5056
1.5 28.5 21.5058
1.5 29.5 20.5061
1.5 30.5 19.5064
1.5 31.5 18.5068
1.5 32.5 17.5071
1.5 33.5 16.5076
1.5 34.5 15.5081
1.5 35.5 14.5086
1.5 36.5 13.5093
1.5 37.5 12.51
1.5 38.5 11.5109
1.5 39.5 10.5119
1.5 40.5 9.51315
1.5 41.5 8.51469
1.5 42.5 7.51665
1.5 43.5 6.5192
1.5 44.5 5.52268
1.5 45.5 4.52769
1.5 46.5 3.53553
1.5 47.5 2.54951
1.5 48.5 1.58114
1.5 49.5 0.707107
2.5 0.5 0.707107
2.5 1.5 1.58114
2.5 2.5 2.54951
2.5 3.5 3.53553
2.5 4.5 4.52769
2.5 5.5 5.52268
2.5 6.5 6.5192
2.5 7.5 7.51665
2.5 8.5 8.51469
2.5 9.5 9.51315
2.5 10.5 10.5119
2.5 11.5 11.5109
2.5 12.5 12.51
2.5 13.5 13.5093
2.5 14.5 14.5086
2.5 15.5 15.5081
2.5 16.5 16.5076
2.5 17.5 17.5071
2.5 18.5 18.5068
2.5 19.5 19.5064
2.5 20.5 20.5061
2.5 21.5 21.5058
2.5 22.5 22.5056
2.5 23.5 23.5053
2.5 24.5 24.5051
2.5 25.5 24.5051
2.5 26.5 23.5053
2.5 27.5 22.5056
2.5 28.5 21.5058
2.5 29.5 20.5061
2.5 30.5 19.5064
2.5 31.5 18.5068
2.5 32.5 17.5071
2.5 33.5 16.5076
2.5 34.5 15.5081
2.5 35.5 14.5086
2.5 36.5 13.5093
2.5 37.5 12.51
2.5 38.5 11.5109
2.5 39.5 10.5119
2.5 40.5 9.51315
2.5 41.5 8.51469
2.5 42.5 7.51665
2.5 43.5 6.5192
2.5 44.5 5.52268
2.5 45.5 4.52769
2.5 46.5 3.53553
2.5 47.5 2.54951
2.5 48.5 1.58114
2.5 49.5 0.707107
3.5 0.5 0.707107
3.5 1.5 1.58114
3.5 2.5 2.54951
3.5 3.5 3.53553
3.5 4.5 4.52769
3.5 5.5 5.52268
3.5 6.5 6.5192
3.5 7.5 7.51665
3.5 8.5 8.51469
3.5 9.5 9.51315
3.5 10.5 10.5119
3.5 11.5 11.5109
3.5 12.5 12.51
3.5 13.5 13.5093
3.5 14.5 14.5086
3.5 15.5 15.5081
3.5 16.5 16.5076
3.5 17.5 17.5071
3.5 18.5 18.5068
3.5 19.5 19.5064
3.5 20.5 20.5061
3.5 21.5 21.5058
3.5 22.5 22.5056
3.5 23.5 23.5053
3.5 24.5 24.5051
3.5 25.5 24.5051
3.5 26.5 23.5053
3.5 27.5 22.5056
3.5 28.5 21.5058
3.5 29.5 20.5061
3.5 30.5 19.5064
3.5 31.5 18.5068
3.5 32.5 17.5071
3.5 33.5 16.5076
3.5 34.5 15.5081
3.5 35.5 14.5086
3.5 36.5 13.5093
3.5 37.5 12.51
3.5 38.5 11.5109
3.5 39.5 10.5119
3.5 40.5 9.51315
3.5 41.5 8.51469
3.5 42.5 7.51665
3.5 43.5 6.5192
3.5 44.5 5.52268
3.5 45.5 4.52769
3.5 46.5 3.53553
3.5 47.5 2.54951
3.5 48.5 1.58114
3.5 49.5 0.707107
4.5 0.5 0.707107
4.5 1.5 1.58114
4.5 2.5 2.54951
4.5 3.5 3.53553
4.5 4.5 4.52769
4.5 5.5 5.52268
4.5 6.5 6.5192
4.5 7.5 7.51665
4.5 8.5 8.51469
4.5 9.5 9.51315
4.5 10.5 10.5119
4.5 11.5 11.5109
4.5 12.5 12.51
4.5 13.5 13.5093
4.5 14.5 14.5086
4.5 15.5 15.5081
4.5 16.5 16.5076
4.5 17.5 17.5071
4.5 18.5 18.5068
4.5 19.5 19.5064
4.5 20.5 20.5061
4.5 21.5 21.5058
4.5 22.5 22.5056
4.5 23.5 23.5053
4.5 24.5 24.5051
4.5 25.5 24.5051
4.5 26.5 23.5053
4.5 27.5 22.5056
4.5 28.5 21.5058
4.5 29.5 20.5061
4.5 30.5 19.5064
4.5 31.5 18.5068
4.5 32.5 17.5071
4.5 33.5 16.5076
4.5 34.5 15.5081
4.5 35.5 14.5086
4.5 36.5 13.5093
4.5 37.5 12.51
4.5 38.5 11.5109
4.5 39.5 10.5119
4.5 40.5 9.51315
4.5 41.5 8.51469
4.5 42.5 7.51665
4.5 43.5 6.5192
4.5 44.5 5.52268
4.5 45.5 4.52769
4.5 46.5 3.53553
4.5 47.5 2.54951
4.5 48.5 1.58114
4.5 49.5 0.707107
5.5 0.5 0.707107
5.5 1.5 1.58114
5.5 2.5 2.54951
5.5 3.5 3.53553
5.5 4.5 4.52769
5.5 5.5 5.52268
5.5 6.5 6.5192
5.5 7.5 7.51665
5.5 8.5 8.51469
5.5 9.5 9.51315
5.5 10.5 10.5119
5.5 11.5 11.5109
5.5 12.5 12.51
5.5 13.5 13.5093
5.5 14.5 14.5086
5.5 15.5 15.5081
5.5 16.5 16.5076
5.5 17.5 17.5071
5.5 18.5 18.5068
5.5 19.5 19.5064
5.5 20.5 20.5061
5.5 21.5 21.5058
5.5 22.5 22.5056
5.5 23.5 23.5053
5.5 24.5 24.5051
5.5 25.5 24.5051
5.5 26.5 23.5053
5.5 27.5 22.5056
5.5 28.5 21.5058
5.5 29.5 20.5061
5.5 30.5 19.5064
5.5 31.5 18.5068
5.5 32.5 17.5071
5.5 33.5 16.5076
5.5 34.5 15.5081
5.5 35.5 14.5086
5.5 36.5 13.5093
5.5 37.5 12.51
5.5 38.5 11.5109
5.5 39.5 10.5119
5.5 40.5 9.51315
5.5 41.5 8.51469
5.5 42.5 7.51665
5.5 43.5 6.5192
5.5 44.5 5.52268
5.5 45.5 4.52769
5.5 46.5 3.53553
5.5 47.5 2.54951
5.5 48.5 1.58114
5.5 49.5 0.707107
6.5 0.5 0.707107
6.5 1.5 1.58114
6.5 2.5 2.54951
6.5 3.5 3.53553
6.5 4.5 4.52769
6.5 5.5 5.52268
6.5 6.5 6.5192
6.5 7.5 7.51665
6.5 8.5 8.51469
6.5 9.5 9.51315
6.5 10.5 10.5119
6.5 11.5 11.5109
6.5 12.5 12.51
6.5 13.5 13.5093
6.5 14.5 14.5086
6.5 15.5 15.5081
6.5 16.5 16.5076
6.5 17.5 17.5071
6.5 18.5 18.5068
6.5 19.5 19.5064
6.5 20.5 20.5061
6.5 21.5 21.5058
6.5 22.5 22.5056
6.5 23.5 23.5053
6.5 24.5 24.5051
6.5 25.5 24.5051
6.5 26.5 23.5053
6.5 27.5 22.5056
6.5 28.5 21.5058
6.5 29.5 20.5061
6.5 30.5 19.5064
6.5 31.5 18.5068
6.5 32.5 17.5071
6.5 33.5 16.5076
6.5 34.5 15.5081
6.5 35.5 14.5086
6.5 36.5 13.5093
6.5 37.5 12.51
6.5 38.5 11.5109
6.5 39.5 10.5119
6.5 40.5 9.51315
6.5 41.5 8.51469
6.5 42.5 7.51665
6.5 43.5 6.5192
6.5 44.5 5.52268
6.5 45.5 4.52769
6.5 46.5 3.53553
6.5 47.5 2.54951
6.5 48.5 1.58114
6.5 49.5 0.707107
7.5 0.5 0.707107
7.5 1.5 1.58114
7.5 2.5 2.54951
7.5 3.5 3.53553
7.5 4.5 4.52769
7.5 5.5 5.52268
7.5 6.5 6.5192
7.5 7.5 7.51665
7.5 8.5 8.51469
7.5 9.5 9.51315
7.5 10.5 10.5119
7.5 11.5 11.5109
7.5 12.5 12.51
7.5 13.5 13.5093
7.5 14.5 14.5086
7.5 15.5 15.5081
7.5 16.5 16.5076
7.5 17.5 17.5071
7.5 18.5 18.5068
7.5 19.5 19.5064
7.5 20.5 20.5061
7.5 21.5 21.5058
7.5 22.5 22.5056
7.5 23.5 23.5053
7.5 24.5 24.5051
7.5 25.5 24.5051
7.5 26.5 23.5053
7.5 27.5 22.5056
7.5 28.5 21.5058
7.5 29.5 20.5061
7.5 30.5 19.5064
7.5 31.5 18.5068
7.5 32.5 17.5071
7.5 33.5 16.5076
7.5 34.5 15.5081
7.5 35.5 14.5086
7.5 36.5 13.5093
7.5 37.5 12.51
7.5 38.5 11.5109
7.5 39.5 10.5119
7.5 40.5 9.51315
7.5 41.5 8.51469
7.5 42.5 7.51665
7.5 43.5 6.5192
7.5 44.5 5.52268
7.5 45.5 4.52769
7.5 46.5 3.53553
7.5 47.5 2.54951
7.5 48.5 1.58114
7.5 49.5 0.707107
8.5 0.5 0.707107
8.5 1.5 1.58114
8.5 2.5 2.54951
8.5 3.5 3.53553
8.5 4.5 4.52769
8.5 5.5 5.52268
8.5 6.5 6.5192
8.5 7.5 7.51665
8.5 8.5 8.51469
8.5 9.5 9.51315
8.5 10.5 10.5119
8.5 11.5 11.5109
8.5 12.5 12.51
8.5 13.5 13.5093
8.5 14.5 14.5086
8.5 15.5 15.5081
8.5 16.5 16.5076
8.5 17.5 17.5071
8.5 18.5 18.5068
8.5 19.5 19.5064
8.5 20.5 20.5061
8.5 21.5 21.5058
8.5 22.5 22.5056
8.5 23.5 23.5053
8.5 24.5 24.5051
8.5 25.5 24.5051
8.5 26.5 23.5053
8.5 27.5 22.5056
8.5 28.5 21.5058
8.5 29.5 20.5061
8.5 30.5 19.5064
8.5 31.5 18.5068
8.5 32.5 17.5071
8.5 33.5 16.5076
8.5 34.5 15.5081
8.5 35.5 14.5086
8.5 36.5 13.5093
8.5 37.5 12.51
8.5 38.5 11.5109
8.5 39.5 10.5119
8.5 40.5 9.51315
8.5 41.5 8.51469
8.5 42.5 7.51665
8.5 43.5 6.5192
8.5 44.5 5.52268
8.5 45.5 4.52769
8.5 46.5 3.53553
8.5 47.5 2.54951
8.5 48.5 1.58114
8.5 49.5 0.707107
9.5 0.5 0.707107
9.5 1.5 1.58114
9.5 2.5 2.54951
9.5 3.5 3.53553
9.5 4.5 4.52769
9.5 5.5 5.52268
9.5 6.5 6.5192
9.5 7.5 7.51665
9.5 8.5 8.51469
9.5 9.5 9.51315
9.5 10.5 10.5119
9.5 11.5 11.5109
9.5 12.5 12.51
9.5 13.5 13.5093
9.5 14.5 14.5086
9.5 15.5 15.5081
9.5 16.5 16.5076
9.5 17.5 17.5071
9.5 18.5 18.5068
9.5 19.5 19.5064
9.5 20.5 20.5061
9.5 21.5 21.5058
9.5 22.5 22.5056
9.5 23.5 23.5053
9.5 24.5 24.5051
9.5 25.5 24.5051
9.5 26.5 23.5053
9.5 27.5 22.5056
9.5 28.5 21.5058
9.5 29.5 20.5061
9.5 30.5 19.5064
9.5 31.5 18.5068
9.5 32.5 17.5071
9.5 33.5 16.5076
9.5 34.5 15.5081
9.5 35.5 14.5086
9.5 36.5 13.5093
9.5 37.5 12.51
9.5 38.5 11.5109
9.5 39.5 10.5119
9.5 40.5 9.51315
9.5 41.5 8.51469
9.5 42.5 7.51665
9.5 43.5 6.5192
9.5 44.5 5.52268
9.5 45.5 4.52769
9.5 46.5 3.53553
9.5 47.5 2.54951
9.5 48.5 1.58114
9.5 49.5 0.707107
10.5 0.5 0.707107
10.5 1.5 1.58114
10.5 2.5 2.54951
10.5 3.5 3.53553
10.5 4.5 4.52769
10.5 5.5 5.52268
10.5 6.5 6.5192
10.5 7.5 7.51665
10.5 8.5 8.51469
10.5 9.5 9.51315
10.5 10.5 10.5119
10.5 11.5 11.5109
10.5 12.5 12.51
10.5 13.5 13.5093
10.5 14.5 14.5086
10.5 15.5 15.5081
10.5 16.5 16.5076
10.5 17.5 17.5071
10.5 18.5 18.5068
10.5 19.5 19.5064
10.5 20.5 20.5061
10.5 21.5 21.5058
10.5 22.5 22.5056
10.5 23.5 23.5053
10.5 24.5 24.5051
10.5 25.5 24.5051
10.5 26.5 23.5053
10.5 27.5 22.5056
10.5 28.5 21.5058
10.5 29.5 20.5061
10.5 30.5 19.5064
10.5 31.5 18.5068
10.5 32.5 17.5071
10.5 33.5 16.5076
10.5 34.5 15.5081
10.5 35.5 14.5086
10.5 36.5 13.5093
10.5 37.5 12.51
10.5 38.5 11.5109
10.5 39.5 10.5119
10.5 40.5 9.51315
10.5 41.5 8.51469
10.5 42.5 7.51665
10.5 43.5 6.5192
10.5 44.5 5.52268
10.5 45.5 4.52769
10.5 46.5 3.53553
10.5 47.5 2.54951
10.5 48.5 1.58114
10.5 49.5 0.707107
11.5 0.5 0.707107
11.5 1.5 1.58114
11.5 2.5 2.54951
11.5 3.5 3.53553
11.5 4.5 4.52769
11.5 5.5 5.52268
11.5 6.5 6.5192
11.5 7.5 7.51665
11.5 8.5 8.51469
11.5 9.5 9.51315
11.5 10.5 10.5119
11.5 11.5 11.5109
11.5 12.5 12.51
11.5 13.5 13.5093
11.5 14.5 14.5086
11.5 15.5 15.5081
11.5 16.5 16.5076
11.5 17.5 17.5071
11.5 18.5 18.5068
11.5 19.5 19.5064
11.5 20.5 20.5061
11.5 21.5 21.5058
11.5 22.5 22.5056
11.5 23.5 23.5053
11.5 24.5 24.5051
11.5 25.5 24.5051
11.5 26.5 23.5053
11.5 27.5 22.5056
11.5 28.5 21.5058
11.5 29.5 20.5061
11.5 30.5 19.5064
11.5 31.5 18.5068
11.5 32.5 17.5071
11.5 33.5 16.5076
11.5 34.5 15.5081
11.5 35.5 14.5086
11.5 36.5 13.5093
11.5 37.5 12.51
11.5 38.5 11.5109
11.5 39.5 10.5119
11.5 40.5 9.51315
11.5 41.5 8.51469
11.5 42.5 7.51665
11.5 43.5 6.5192
11.5 44.5 5.52268
11.5 45.5 4.52769
11.5 46.5 3.53553
11.5 47.5 2.54951
11.5 48.5 1.58114
11.5 49.5 0.707107
12.5 0.5 0.707107
12.5 1.5 1.58114
12.5 2.5 2.54951
12.5 3.5 3.53553
12.5 4.5 4.52769
12.5 5.5 5.52268
12.5 6.5 6.5192
12.5 7.5 7.51665
12.5 8.5 8.51469
12.5 9.5 9.51315
12.5 10.5 10.5119
12.5 11.5 11.5109
12.5 12.5 12.51
12.5 13.5 13.5093
12.5 14.5 14.5086
12.5 15.5 15.5081
12.5 16.5 16.5076
12.5 17.5 17.5071
12.5 18.5 18.5068
12.5 19.5 19.5064
12.5 20.5 20.5061
12.5 21.5 21.5058
12.5 22.5 22.5056
12.5 23.5 23.5053
12.5 24.5 24.5051
12.5 25.5 24.5051
12.5 26.5 23.5053
12.5 27.5 22.5056
12.5 28.5 21.5058
12.5 29.5 20.5061
12.5 30.5 19.5064
12.5 31.5 18.5068
12.5 32.5 17.5071
12.5 33.5 16.5076
12.5 34.5 15.5081
12.5 35.5 14.5086
12.5 36.5 13.5093
12.5 37.5 12.51
12.5 38.5 11.5109
12.5 39.5 10.5119
12.5 40.5 9.51315
12.5 41.5 8.51469
12.5 42.5 7.51665
12.5 43.5 6.5192
12.5 44.5 5.52268
12.5 45.5 4.52769
12.5 46.5 3.53553
12.5 47.5 2.54951
12.5 48.5 1.58114
12.5 49.5 0.707107
13.5 0.5 0.707107
13.5 1.5 1.58114
13.5 2.5 2.54951
13.5 3.5 3.53553
13.5 4.5 4.52769
13.5 5.5 5.52268
13.5 6.5 6.5192
13.5 7.5 7.51665
13.5 8.5 8.51469
13.5 9.5 9.51315
13.5 10.5 10.5119
13.5 11.5 11.5109
13.5 12.5 12.51
13.5 13.5 13.5093
13.5 14.5 14.5086
13.5 15.5 15.5081
13.5 16.5 16.5076
13.5 17.5 17.5071
13.5 18.5 18.5068
13.5 19.5 19.5064
13.5 20.5 20.5061
13.5 21.5 21.5058
13.5 22.5 22.5056
13.5 23.5 23.5053
13.5 24.5 24.5051
13.5 25.5 24.5051
13.5 26.5 23.5053
13.5 27.5 22.5056
13.5 28.5 21.5058
13.5 29.5 20.5061
13.5 30.5 19.5064
13.5 31.5 18.5068
13.5 32.5 17.5071
13.5 33.5 16.5076
13.5 34.5 15.5081
13.5 35.5 14.5086
13.5 36.5 13.5093
13.5 37.5 12.51
13.5 38.5 11.5109
13.5 39.5 10.5119
13.5 40.5 9.51315
13.5 41.5 8.51469
13.5 42.5 7.51665
13.5 43.5 6.5192
13.5 44.5 5.52268
13.5 45.5 4.52769
13.5 46.5 3.53553
13.5 47.5 2.54951
13.5 48.5 1.58114
13.5 49.5 0.707107
14.5 0.5 0.707107
14.5 1.5 1.58114
14.5 2.5 2.54951
14.5 3.5 3.53553
14.5 4.5 4.52769
14.5 5.5 5.52268
14.5 6.5 6.5192
14.5 7.5 7.51665
14.5 8.5 8.51469
14.5 9.5 9.51315
14.5 10.5 10.5119
14.5 11.5 11.5109
14.5 12.5 12.51
14.5 13.5 13.5093
14.5 14.5 14.5086
14.5 15.5 15.5081
14.5 16.5 16.5076
14.5 17.5 17.5071
14.5 18.5 18.5068
14.5 19.5 19.5064
14.5 20.5 20.5061
14.5 21.5 21.5058
14.5 22.5 22.5056
14.5 23.5 23.5053
14.5 24.5 24.5051
14.5 25.5 24.5051
14.5 26.5 23.5053
14.5 27.5 22.5056
14.5 28.5 21.5058
14.5 29.5 20.5061
14.5 30.5 19.5064
14.5 31.5 18.5068
14.5 32.5 17.5071
14.5 33.5 16.5076
14.5 34.5 15.5081
14.5 35.5 14.5086
14.5 36.5 13.5093
14.5 37.5 12.51
14.5 38.5 11.5109
14.5 39.5 10.5119
14.5 40.5 9.51315
14.5 41.5 8.51469
14.5 42.5 7.51665
14.5 43.5 6.5192
14.5 44.5 5.52268
14.5 45.5 4.52769
14.5 46.5 3.53553
14.5 47.5 2.54951
14.5 48.5 1.58114
14.5 49.5 0.707107
15.5 0.5 0.707107
15.5 1.5 1.58114
15.5 2.5 2.54951
15.5 3.5 3.53553
15.5 4.5 4.52769
15.5 5.5 5.52268
15.5 6.5 6.5192
15.5 7.5 7.51665
15.5 8.5 8.51469
15.5 9.5 9.51315
15.5 10.5 10.5119
15.5 11.5 11.5109
15.5 12.5 12.51
15.5 13.5 13.5093
15.5 14.5 14.5086
15.5 15.5 15.5081
15.5 16.5 16.5076
15.5 17.5 17.5071
15.5 18.5 18.5068
15.5 19.5 19.5064
15.5 20.5 20.5061
15.5 21.5 21.5058
15.5 22.5 22.5056
15.5 23.5 23.5053
15.5 24.5 24.5051
15.5 25.5 24.5051
15.5 26.5 23.5053
15.5 27.5 22.5056
15.5 28.5 21.5058
15.5 29.5 20.5061
15.5 30.5 19.5064
15.5 31.5 18.5068
15.5 32.5 17.5071
15.5 33.5 16.5076
15.5 34.5 15.5081
15.5 35.5 14.5086
15.5 36.5 13.5093
15.5 37.5 12.51
15.5 38.5 11.5109
15.5 39.5 10.5119
15.5 40.5 9.51315
15.5 41.5 8.51469
15.5 42.5 7.51665
15.5 43.5 6.5192
15.5 44.5 5.52268
15.5 45.5 4.52769
15.5 46.5 3.53553
15.5 47.5 2.54951
15.5 48.5 1.58114
15.5 49.5 0.707107
16.5 0.5 0.707107
16.5 1.5 1.58114
16.5 2.5 2.54951
16.5 3.5 3.53553
16.5 4.5 4.52769
16.5 5.5 5.52268
16.5 6.5 6.5192
16.5 7.5 7.51665
16.5 8.5 8.51469
16.5 9.5 9.51315
16.5 10.5 10.5119
16.5 11.5 11.5109
16.5 12.5 12.51
16.5 13.5 13.5093
16.5 14.5 14.5086
16.5 15.5 15.5081
16.5 16.5 16.5076
16.5 17.5 17.5071
16.5 18.5 18.5068
16.5 19.5 19.5064
16.5 20.5 20.5061
16.5 21.5 21.5058
16.5 22.5 22.5056
16.5 23.5 23.5053
16.5 24.5 24.5051
16.5 25.5 24.5051
16.5 26.5 23.5053
16.5 27.5 22.5056
16.5 28.5 21.5058
16.5 29.5 20.5061
16.5 30.5 19.5064
16.5 31.5 18.5068
16.5 32.5 17.5071
16.5 33.5 16.5076
16.5 34.5 15.5081
16.5 35.5 14.5086
16.5 36.5 13.5093
16.5 37.5 12.51
16.5 38.5 11.5109
16.5 39.5 10.5119
16.5 40.5 9.51315
16.5 41.5 8.51469
16.5 42.5 7.51665
16.5 43.5 6.5192
16.5 44.5 5.52268
16.5 45.5 4.52769
16.5 46.5 3.53553
16.5 47.5 2.54951
16.5 48.5 1.58114
16.5 49.5 0.707107
17.5 0.5 0.707107
17.5 1.5 1.58114
17.5 2.5 2.54951
17.5 3.5 3.53553
17.5 4.5 4.52769
17.5 5.5 5.52268
17.5 6.5 6.5192
17.5 7.5 7.51665
17.5 8.5 8.51469
17.5 9.5 9.51315
17.5 10.5 10.5119
17.5 11.5 11.5109
17.5 12.5 12.51
17.5 13.5 13.5093
17.5 14.5 14.5086
17.5 15.5 15.5081
17.5 16.5 16.5076
17.5 17.5 17.5071
17.5 18.5 18.5068
17.5 19.5 19.5064
17.5 20.5 20.5061
17.5 21.5 21.5058
17.5 22.5 22.5056
17.5 23.5 23.5053
17.5 24.5 24.5051
17.5 25.5 24.5051
17.5 26.5 23.5053
17.5 27.5 22.5056
17.5 28.5 21.5058
17.5 29.5 20.5061
17.5 30.5 19.5064
17.5 31.5 18.5068
17.5 32.5 17.5071
17.5 33.5 16.5076
17.5 34.5 15.5081
17.5 35.5 14.5086
17.5 36.5 13.5093
17.5 37.5 12.51
17.5 38.5 11.5109
17.5 39.5 10.5119
17.5 40.5 9.51315
17.5 41.5 8.51469
17.5 42.5 7.51665
17.5 43.5 6.5192
17.5 44.5 5.52268
17.5 45.5 4.52769
17.5 46.5 3.53553
17.5 47.5 2.54951
17.5 48.5 1.58114
17.5 49.5 0.707107
18.5 0.5 0.707107
18.5 1.5 1.58114
18.5 2.5 2.54951
18.5 3.5 3.53553
18.5 4.5 4.52769
18.5 5.5 5.52268
18.5 6.5 6.5192
18.5 7.5 7.51665
18.5 8.5 8.51469
18.5 9.5 9.51315
18.5 10.5 10.5119
18.5 11.5 11.5109
18.5 12.5 12.51
18.5 13.5 13.5093
18.5 14.5 14.5086
18.5 15.5 15.5081
18.5 16.5 16.5076
18.5 17.5 17.5071
18.5 18.5 18.5068
18.5 19.5 19.5064
18.5 20.5 20.5061
18.5 21.5 21.5058
18.5 22.5 22.5056
18.5 23.5 23.5053
18.5 24.5 24.5051
18.5 25.5 24.5051
18.5 26.5 23.5053
18.5 27.5 22.5056
18.5 28.5 21.5058
18.5 29.5 20.5061
18.5 30.5 19.5064
18.5 31.5 18.5068
18.5 32.5 17.5071
18.5 33.5 16.5076
18.5 34.5 15.5081
18.5 35.5 14.5086
18.5 36.5 13.5093
18.5 37.5 12.51
18.5 38.5 11.5109
18.5 39.5 10.5119
18.5 40.5 9.51315
18.5 41.5 8.51469
18.5 42.5 7.51665
18.5 43.5 6.5192
18.5 44.5 5.52268
18.5 45.5 4.52769
18.5 46.5 3.53553
18.5 47.5 2.54951
18.5 48.5 1.58114
18.5 49.5 0.707107
19.5 0.5 0.707107
19.5 1.5 1.58114
19.5 2.5 2.54951
19.5 3.5 3.53553
19.5 4.5 4.52769
19.5 5.5 5.52268
19.5 6.5 6.5192
19.5 7.5 7.51665
19.5 8.5 8.51469
19.5 9.5 9.51315
19.5 10.5 10.5119
19.5 11.5 11.5109
19.5 12.5 12.51
19.5 13.5 13.5093
19.5 14.5 14.5086
19.5 15.5 15.5081
19.5 16.5 16.5076
19.5 17.5 17.5071
19.5 18.5 18.5068
19.5 19.5 19.5064
19.5 20.5 20.5061
19.5 21.5 21.5058
19.5 22.5 22.5056
19.5 23.5 23.5053
19.5 24.5 24.5051
19.5 25.5 24.5051
19.5 26.5 23.5053
19.5 27.5 22.5056
19.5 28.5 21.5058
19.5 29.5 20.5061
19.5 30.5 19.5064
19.5 31.5 18.5068
19.5 32.5 17.5071
19.5 33.5 16.5076
19.5 34.5 15.5081
19.5 35.5 14.5086
19.5 36.5 13.5093
19.5 37.5 12.51
19.5 38.5 11.5109
19.5 39.5 10.5119
19.5 40.5 9.51315
19.5 41.5 8.51469
19.5 42.5 7.51665
19.5 43.5 6.5192
19.5 44.5 5.52268
19.5 45.5 4.52769
19.5 46.5 3.53553
19.5 47.5 2.54951
19.5 48.5 1.58114
19.5 49.5 0.707107
20.5 0.5 0.707107
20.5 1.5 1.58114
20.5 2.5 2.54951
20.5 3.5 3.53553
20.5 4.5 4.52769
20.5 5.5 5.52268
20.5 6.5 6.5192
20.5 7.5 7.51665
20.5 8.5 8.51469
20.5 9.5 9.51315
20.5 10.5 10.5119
20.5 11.5 11.5109
20.5 12.5 12.51
20.5 13.5 13.5093
20.5 14.5 14.5086
20.5 15.5 15.5081
20.5 16.5 16.5076
20.5 17.5 17.5071
20.5 18.5 18.5068
20.5 19.5 19.5064
20.5 20.5 20.5061
20.5 21.5 21.5058
20.5 22.5 22.5056
20.5 23.5 23.5053
20.5 24.5 24.5051
20.5 25.5 24.5051
20.5 26.5 23.5053
20.5 27.5 22.5056
20.5 28.5 21.5058
20.5 29.5 20.5061
20.5 30.5 19.5064
20.5 31.5 18.5068
20.5 32.5 17.5071
20.5 33.5 16.5076
20.5 34.5 15.5081
20.5 35.5 14.5086
20.5 36.5 13.5093
20.5 37.5 12.51
20.5 38.5 11.5109
20.5 39.5 10.5119
20.5 40.5 9.51315
20.5 41.5 8.51469
20.5 42.5 7.51665
20.5 43.5 6.5192
20.5 44.5 5.52268
20.5 45.5 4.52769
20.5 46.5 3.53553
20.5 47.5 2.54951
20.5 48.5 1.58114
20.5 49.5 0.707107
21.5 0.5 0.707107
21.5 1.5 1.58114
21.5 2.5 2.54951
21.5 3.5 3.53553
21.5 4.5 4.52769
21.5 5.5 5.52268
21.5 6.5 6.5192
21.5 7.5 7.51665
21.5 8.5 8.51469
21.5 9.5 9.51315
21.5 10.5 10.5119
21.5 11.5 11.5109
21.5 12.5 12.51
21.5 13.5 13.5093
21.5 14.5 14.5086
21.5 15.5 15.5081
21.5 16.5 16.5076
21.5 17.5 17.5071
21.5 18.5 18.5068
21.5 19.5 19.5064
21.5 20.5 20.5061
21.5 21.5 21.5058
21.5 22.5 22.5056
21.5 23.5 23.5053
21.5 24.5 24.5051
21.5 25.5 24.5051
21.5 26.5 23.5053
21.5 27.5 22.5056
21.5 28.5 21.5058
21.5 29.5 20.5061
21.5 30.5 19.5064
21.5 31.5 18.5068
21.5 32.5 17.5071
21.5 33.5 16.5076
21.5 34.5 15.5081
21.5 35.5 14.5086
21.5 36.5 13.5093
21.5 37.5 12.51
21.5 38.5 11.5109
21.5 39.5 10.5119
21.5 40.5 9.51315
21.5 41.5 8.51469
21.5 42.5 7.51665
21.5 43.5 6.5192
21.5 44.5 5.52268
21.5 45.5 4.52769
21.5 46.5 3.53553
21.5 47.5 2.54951
21.5 48.5 1.58114
21.5 49.5 0.707107
22.5 0.5 0.707107
22.5 1.5 1.58114
22.5 2.5 2.54951
22.5 3.5 3.53553
22.5 4.5 4.52769
22.5 5.5 5.52268
22.5 6.5 6.5192
22.5 7.5 7.51665
22.5 8.5 8.51469
22.5 9.5 9.51315
22.5 10.5 10.5119
22.5 11.5 11.5109
22.5 12.5 12.51
22.5 13.5 13.5093
22.5 14.5 14.5086
22.5 15.5 15.5081
22.5 16.5 16.5076
22.5 17.5 17.5071
22.5 18.5 18.5068
22.5 19.5 19.5064
22.5 20.5 20.5061
22.5 21.5 21.5058
22.5 22.5 22.5056
22.5 23.5 23.5053
22.5 24.5 24.5051
22.5 25.5 24.5051
22.5 26.5 23.5053
22.5 27.5 22.5056
22.5 28.5 21.5058
22.5 29.5 20.5061
22.5 30.5 19.5064
22.5 31.5 18.5068
22.5 32.5 17.5071
22.5 33.5 16.5076
22.5 34.5 15.5081
22.5 35.5 14.5086
22.5 36.5 13.5093
22.5 37.5 12.51
22.5 38.5 11.5109
22.5 39.5 10.5119
22.5 40.5 9.51315
22.5 41.5 8.51469
22.5 42.5 7.51665
22.5 43.5 6.5192
22.5 44.5 5.52268
22.5 45.5 4.52769
22.5 46.5 3.53553
22.5 47.5 2.54951
22.5 48.5 1.58114
22.5 49.5 0.707107
23.5 0.5 0.707107
23.5 1.5 1.58114
23.5 2.5 2.54951
23.5 3.5 3.53553
23.5 4.5 4.52769
23.5 5.5 5.52268
23.5 6.5 6.5192
23.5 7.5 7.51665
23.5 8.5 8.51469
23.5 9.5 9.51315
23.5 10.5 10.5119
23.5 11.5 11.5109
23.5 12.5 12.51
23.5 13.5 13.5093
23.5 14.5 14.5086
23.5 15.5 15.5081
23.5 16.5 16.5076
23.5 17.5 17.5071
23.5 18.5 18.5068
23.5 19.5 19.5064
23.5 20.5 20.5061
23.5 21.5 21.5058
23.5 22.5 22.5056
23.5 23.5 23.5053
23.5 24.5 24.5051
23.5 25.5 24.5051
23.5 26.5 23.5053
23.5 27.5 22.5056
23.5 28.5 21.5058
23.5 29.5 20.5061
23.5 30.5 19.5064
23.5 31.5 18.5068
23.5 32.5 17.5071
23.5 33.5 16.5076
23.5 34.5 15.5081
23.5 35.5 14.5086
23.5 36.5 13.5093
23.5 37.5 12.51
23.5 38.5 11.5109
23.5 39.5 10.5119
23.5 40.5 9.51315
23.5 41.5 8.51469
23.5 42.5 7.51665
23.5 43.5 6.5192
23.5 44.5 5.52268
23.5 45.5 4.52769
23.5 46.5 3.53553
23.5 47.5 2.54951
23.5 48.5 1.58114
23.5 49.5 0.707107
24.5 0.5 0.707107
24.5 1.5 1.58114
24.5 2.5 2.54951
24.5 3.5 3.53553
24.5 4.5 4.52769
24.5 5.5 5.52268
24.5 6.5 6.5192
24.5 7.5 7.51665
24.5 8.5 8.51469
24.5 9.5 9.51315
24.5 10.5 10.5119
24.5 11.5 11.5109
24.5 12.5 12.51
24.5 13.5 13.5093
24.5 14.5 14.5086
24.5 15.5 15.5081
24.5 16.5 16.5076
24.5 17.5 17.5071
24.5 18.5 18.5068
24.5 19.5 19.5064
24.5 20.5 20.5061
24.5 21.5 21.5058
24.5 22.5 22.5056
24.5 23.5 23.5053
24.5 24.5 24.5051
24.5 25.5 24.5051
24.5 26.5 23.5053
24.5 27.5 22.5056
24.5 28.5 21.5058
24.5 29.5 20.5061
24.5 30.5 19.5064
24.5 31.5 18.5068
24.5 32.5 17.5071
24.5 33.5 16.5076
24.5 34.5 15.5081
24.5 35.5 14.5086
24.5 36.5 13.5093
24.5 37.5 12.51
24.5 38.5 11.5109
24.5 39.5 10.5119
24.5 40.5 9.51315
24.5 41.5 8.51469
24.5 42.5 7.51665
24.5 43.5 6.5192
24.5 44.5 5.52268
24.5 45.5 4.52769
24.5 46.5 3.53553
24.5 47.5 2.54951
24.5 48.5 1.58114
24.5 49.5 0.707107
25.5 0.5 0.707107
25.5 1.5 1.58114
25.5 2.5 2.54951
25.5 3.5 3.53553
25.5 4.5 4.52769
25.5 5.5 5.52268
25.5 6.5 6.5192
25.5 7.5 7.51665
25.5 8.5 8.51469
25.5 9.5 9.51315
25.5 10.5 10.5119
25.5 11.5 11.5109
25.5 12.5 12.51
25.5 13.5 13.5093
25.5 14.5 14.5086
25.5 15.5 15.5081
25.5 16.5 16.5076
25.5 17.5 17.5071
25.5 18.5 18.5068
25.5 19.5 19.5064
25.5 20.5 20.5061
25.5 21.5 21.5058
25.5 22.5 22.5056
25.5 23.5 23.5053
25.5 24.5 24.5051
25.5 25.5 24.5051
25.5 26.5 23.5053
25.5 27.5 22.5056
25.5 28.5 21.5058
25.5 29.5 20.5061
25.5 30.5 19.5064
25.5 31.5 18.5068
25.5 32.5 17.5071
25.5 33.5 16.5076
25.5 34.5 15.5081
25.5 35.5 14.5086
25.5 36.5 13.5093
25.5 37.5 12.51
25.5 38.5 11.5109
25.5 39.5 10.5119
25.5 40.5 9.51315
25.5 41.5 8.51469
25.5 42.5 7.51665
25.5 43.5 6.5192
25.5 44.5 5.52268
25.5 45.5 4.52769
25.5 46.5 3.53553
25.5 47.5 2.54951
25.5 48.5 1.58114
25.5 49.5 0.707107
26.5 0.5 0.707107
26.5 1.5 1.58114
26.5 2.5 2.54951
26.5 3.5 3.53553
26.5 4.5 4.52769
26.5 5.5 5.52268
26.5 6.5 6.5192
26.5 7.5 7.51665
26.5 8.5 8.51469
26.5 9.5 9.51315
26.5 10.5 10.5119
26.5 11.5 11.5109
26.5 12.5 12.51
26.5 13.5 13.5093
26.5 14.5 14.5086
26.5 15.5 15.5081
26.5 16.5 16.5076
26.5 17.5 17.5071
26.5 18.5 18.5068
26.5 19.5 19.5064
26.5 20.5 20.5061
26.5 21.5 21.5058
26.5 22.5 22.5056
26.5 23.5 23.5053
26.5 24.5 24.5051
26.5 25.5 24.5051
26.5 26.5 23.5053
26.5 27.5 22.5056
26.5 28.5 21.5058
26.5 29.5 20.5061
26.5 30.5 19.5064
26.5 31.5 18.5068
26.5 32.5 17.5071
26.5 33.5 16.5076
26.5 34.5 15.5081
26.5 35.5 14.5086
26.5 36.5 13.5093
26.5 37.5 12.51
26.5 38.5 11.5109
26.5 39.5 10.5119
26.5 40.5 9.51315
26.5 41.5 8.51469
26.5 42.5 7.51665
26.5 43.5 6.5192
26.5 44.5 5.52268
26.5 45.5 4.52769
26.5 46.5 3.53553
26.5 47.5 2.54951
26.5 48.5 1.58114
26.5 49.5 0.707107
27.5 0.5 0.707107
27.5 1.5 1.58114
27.5 2.5 2.54951
27.5 3.5 3.53553
27.5 4.5 4.52769
27.5 5.5 5.52268
27.5 6.5 6.5192
27.5 7.5 7.51665
27.5 8.5 8.51469
27.5 9.5 9.51315
27.5 10.5 10.5119
27.5 11.5 11.5109
27.5 12.5 12.51
27.5 13.5 13.5093
27.5 14.5 14.5086
27.5 15.5 15.5081
27.5 16.5 16.5076
27.5 17.5 17.5071
27.5 18.5 18.5068
27.5 19.5 19.5064
27.5 20.5 20.5061
27.5 21.5 21.5058
27.5 22.5 22.5056
27.5 23.5 23.5053
27.5 24.5 24.5051
27.5 25.5 24.5051
27.5 26.5 23.5053
27.5 27.5 22.5056
27.5 28.5 21.5058
27.5 29.5 20.5061
27.5 30.5 19.5064
27.5 31.5 18.5068
27.5 32.5 17.5071
27.5 33.5 16.5076
27.5 34.5 15.5081
27.5 35.5 14.5086
27.5 36.5 13.5093
27.5 37.5 12.51
27.5 38.5 11.5109
27.5 39.5 10.5119
27.5 40.5 9.51315
27.5 41.5 8.51469
27.5 42.5 7.51665
27.5 43.5 6.5192
27.5 44.5 5.52268
27.5 45.5 4.52769
27.5 46.5 3.53553
27.5 47.5 2.54951
27.5 48.5 1.58114
27.5 49.5 0.707107
28.5 0.5 0.707107
28.5 1.5 1.58114
28.5 2.5 2.54951
28.5 3.5 3.53553
28.5 4.5 4.52769
28.5 5.5 5.52268
28.5 6.5 6.5192
28.5 7.5 7.51665
28.5 8.5 8.51469
28.5 9.5 9.51315
28.5 10.5 10.5119
28.5 11.5 11.5109
28.5 12.5 12.51
28.5 13.5 13.5093
28.5 14.5 14.5086
28.5 15.5 15.5081
28.5 16.5 16.5076
28.5 17.5 17.5071
28.5 18.5 18.5068
28.5 19.5 19.5064
28.5 20.5 20.5061
28.5 21.5 21.5058
28.5 22.5 22.5056
28.5 23.5 23.5053
28.5 24.5 24.5051
28.5 25.5 24.5051
28.5 26.5 23.5053
28.5 27.5 22.5056
28.5 28.5 21.5058
28.5 29.5 20.5061
28.5 30.5 19.5064
28.5 31.5 18.5068
28.5 32.5 17.5071
28.5 33.5 16.5076
28.5 34.5 15.5081
28.5 35.5 14.5086
28.5 36.5 13.5093
28.5 37.5 12.51
28.5 38.5 11.5109
28.5 39.5 10.5119
28.5 40.5 9.51315
28.5 41.5 8.51469
28.5 42.5 7.51665
28.5 43.5 6.5192
28.5 44.5 5.52268
28.5 45.5 4.52769
28.5 46.5 3.53553
28.5 47.5 2.54951
28.5 48.5 1.58114
28.5 49.5 0.707107
29.5 0.5 0.707107
29.5 1.5 1.58114
29.5 2.5 2.54951
29.5 3.5 3.53553
29.5 4.5 4.52769
29.5 5.5 5.52268
29.5 6.5 6.5192
29.5 7.5 7.51665
29.5 8.5 8.51469
29.5 9.5 9.51315
29.5 10.5 10.5119
29.5 11.5 11.5109
29.5 12.5 12.51
29.5 13.5 13.5093
29.5 14.5 14.5086
29.5 15.5 15.5081
29.5 16.5 16.5076
29.5 17.5 17.5071
29.5 18.5 18.5068
29.5 19.5 19.5064
29.5 20.5 20.5061
29.5 21.5 21.5058
29.5 22.5 22.5056
29.5 23.5 23.5053
29.5 24.5 24.5051
29.5 25.5 24.5051
29.5 26.5 23.5053
29.5 27.5 22.5056
29.5 28.5 21.5058
29.5 29.5 20.5061
29.5 30.5 19.5064
29.5 31.5 18.5068
29.5 32.5 17.5071
29.5 33.5 16.5076
29.5 34.5 15.5081
29.5 35.5 14.5086
29.5 36.5 13.5093
29.5 37.5 12.51
29.5 38.5 11.5109
29.5 39.5 10.5119
29.5 40.5 9.51315
29.5 41.5 8.51469
29.5 42.5 7.51665
29.5 43.5 6.5192
29.5 44.5 5.52268
29.5 45.5 4.52769
29.5 46.5 3.53553
29.5 47.5 2.54951
29.5 48.5 1.58114
29.5 49.5 0.707107
30.5 0.5 0.707107
30.5 1.5 1.58114
30.5 2.5 2.54951
30.5 3.5 3.53553
30.5 4.5 4.52769
30.5 5.5 5.52268
30.5 6.5 6.5192
30.5 7.5 7.51665
30.5 8.5 8.51469
30.5 9.5 9.51315
30.5 10.5 10.5119
30.5 11.5 11.5109
30.5 12.5 12.51
30.5 13.5 13.5093
30.5 14.5 14.5086
30.5 15.5 15.5081
30.5 16.5 16.5076
30.5 17.5 17.5071
30.5 18.5 18.5068
30.5 19.5 19.5064
30.5 20.5 20.5061
30.5 21.5 21.5058
30.5 22.5 22.5056
30.5 23.5 23.5053
30.5 24.5 24.5051
30.5 25.5 24.5051
30.5 26.5 23.5053
30.5 27.5 22.5056
30.5 28.5 21.5058
30.5 29.5 20.5061
30.5 30.5 19.5064
30.5 31.5 18.5068
30.5 32.5 17.5071
30.5 33.5 16.5076
30.5 34.5 15.5081
30.5 35.5 14.5086
30.5 36.5 13.5093
30.5 37.5 12.51
30.5 38.5 11.5109
30.5 39.5 10.5119
30.5 40.5 9.51315
30.5 41.5 8.51469
30.5 42.5 7.51665
30.5 43.5 6.5192
30.5 44.5 5.52268
30.5 45.5 4.52769
30.5 46.5 3.53553
30.5 47.5 2.54951
30.5 48.5 1.58114
30.5 49.5 0.707107
31.5 0.5 0.707107
31.5 1.5 1.58114
31.5 2.5 2.54951
31.5 3.5 3.53553
31.5 4.5 4.52769
31.5 5.5 5.52268
31.5 6.5 6.5192
31.5 7.5 7.51665
31.5 8.5 8.51469
31.5 9.5 9.51315
31.5 10.5 10.5119
31.5 11.5 11.5109
31.5 12.5 12.51
31.5 13.5 13.5093
31.5 14.5 14.5086
31.5 15.5 15.5081
31.5 16.5 16.5076
31.5 17.5 17.5071
31.5 18.5 18.5068
31.5 19.5 19.5064
31.5 20.5 20.5061
31.5 21.5 21.5058
31.5 22.5 22.5056
31.5 23.5 23.5053
31.5 24.5 24.5051
31.5 25.5 24.5051
31.5 26.5 23.5053
31.5 27.5 22.5056
31.5 28.5 21.5058
31.5 29.5 20.5061
31.5 30.5 19.5064
31.5 31.5 18.5068
31.5 32.5 17.5071
31.5 33.5 16.5076
31.5 34.5 15.5081
31.5 35.5 14.5086
31.5 36.5 13.5093
31.5 37.5 12.51
31.5 38.5 11.5109
31.5 39.5 10.5119
31.5 40.5 9.51315
31.5 41.5 8.51469
31.5 42.5 7.51665
31.5 43.5 6.5192
31.5 44.5 5.52268
31.5 45.5 4.52769
31.5 46.5 3.53553
31.5 47.5 2.54951
31.5 48.5 1.58114
31.5 49.5 0.707107
32.5 0.5 0.707107
32.5 1.5 1.58114
32.5 2.5 2.54951
32.5 3.5 3.53553
32.5 4.5 4.52769
32.5 5.5 5.52268
32.5 6.5 6.5192
32.5 7.5 7.51665
32.5 8.5 8.51469
32.5 9.5 9.51315
32.5 10.5 10.5119
32.5 11.5 11.5109
32.5 12.5 12.51
32.5 13.5 13.5093
32.5 14.5 14.5086
32.5 15.5 15.5081
32.5 16.5 16.5076
32.5 17.5 17.5071
32.5 18.5 18.5068
32.5 19.5 19.5064
32.5 20.5 20.5061
32.5 21.5 21.5058
32.5 22.5 22.5056
32.5 23.5 23.5053
32.5 24.5 24.5051