VARIABLES = "X", "Y", "Yw,m"
ZONE I= 49, J= 149, DATAPACKING=POINT
-0.00243344 0.00315472 0.00244455
-0.00738272 0.00316244 0.00739382
-0.0124575 0.00317039 0.0124686
-0.0176607 0.00317854 0.0176718
-0.0229951 0.00318692 0.0230062
-0.0284636 0.00319552 0.0284747
-0.0340692 0.00320435 0.0340802
-0.0398149 0.00321341 0.039826
-0.0457038 0.00322271 0.0457149
-0.0517391 0.00323225 0.0517502
-0.0579239 0.00324204 0.057935
-0.0642617 0.00325209 0.0642727
-0.0707556 0.00326239 0.0707666
-0.0774091 0.00327296 0.0774201
-0.0842256 0.00328379 0.0842367
-0.0912088 0.0032949 0.0912199
-0.0983623 0.0033063 0.0983733
-0.10569 0.00331798 0.105701
-0.113195 0.00332995 0.113206
-0.120881 0.00334222 0.120892
-0.128753 0.0033548 0.128764
-0.136814 0.00336769 0.136825
-0.145068 0.0033809 0.14508
-0.15352 0.00339443 0.153531
-0.162174 0.00340829 0.162185
-0.171034 0.0034225 0.171045
-0.180103 0.00343704 0.180114
-0.189388 0.00345194 0.189399
-0.198891 0.0034672 0.198902
-0.208619 0.00348283 0.20863
-0.218574 0.00349883 0.218585
-0.228763 0.00351521 0.228773
-0.239189 0.00353198 0.2392
-0.249857 0.00354914 0.249868
-0.260774 0.00356671 0.260784
-0.271942 0.0035847 0.271953
-0.283368 0.0036031 0.283379
-0.295057 0.00362194 0.295068
-0.307013 0.00364121 0.307024
-0.319242 0.00366093 0.319253
-0.331749 0.0036811 0.33176
-0.34454 0.00370174 0.34455
-0.357619 0.00372286 0.35763
-0.370992 0.00374445 0.371003
-0.384665 0.00376654 0.384676
-0.398643 0.00378914 0.398654
-0.41293 0.00381225 0.412941
-0.427533 0.00383588 0.427544
-0.442457 0.00386005 0.442468
-0.00239145 0.00948519 0.00244458
-0.00734078 0.00950842 0.0073939
-0.0124157 0.00953231 0.0124688
-0.0176189 0.00955685 0.017672
-0.0229534 0.00958204 0.0230065
-0.028422 0.0096079 0.0284751
-0.0340276 0.00963445 0.0340807
-0.0397735 0.0096617 0.0398265
-0.0456625 0.00968966 0.0457156
-0.0516979 0.00971835 0.051751
-0.0578829 0.00974779 0.0579359
-0.0642207 0.00977799 0.0642738
-0.0707147 0.00980896 0.0707678
-0.0773684 0.00984073 0.0774214
-0.0841851 0.00987332 0.0842381
-0.0911684 0.00990673 0.0912214
-0.0983219 0.00994098 0.0983749
-0.105649 0.0099761 0.105702
-0.113154 0.0100121 0.113208
-0.120841 0.010049 0.120894
-0.128713 0.0100868 0.128766
-0.136774 0.0101256 0.136827
-0.145029 0.0101653 0.145082
-0.153481 0.010206 0.153534
-0.162135 0.0102477 0.162188
-0.170995 0.0102904 0.171048
-0.180065 0.0103341 0.180118
-0.189349 0.0103789 0.189402
-0.198853 0.0104248 0.198906
-0.20858 0.0104718 0.208633
-0.218536 0.0105199 0.218589
-0.228724 0.0105691 0.228777
-0.239151 0.0106196 0.239204
-0.24982 0.0106712 0.249873
-0.260736 0.010724 0.260789
-0.271905 0.0107781 0.271958
-0.283331 0.0108334 0.283384
-0.29502 0.01089 0.295073
-0.306976 0.010948 0.307029
-0.319205 0.0110073 0.319258
-0.331713 0.0110679 0.331766
-0.344503 0.01113 0.344556
-0.357583 0.0111935 0.357636
-0.370957 0.0112584 0.371009
-0.38463 0.0113249 0.384683
-0.398608 0.0113928 0.39866
-0.412896 0.0114623 0.412948
-0.427499 0.0115333 0.427552
-0.442422 0.011606 0.442475
-0.00230942 0.0158577 0.00244462
-0.00725886 0.0158966 0.00739405
-0.0123339 0.0159365 0.0124691
-0.0175373 0.0159775 0.0176725
-0.0228719 0.0160197 0.0230071
-0.0283407 0.0160629 0.0284759
-0.0339466 0.0161073 0.0340817
-0.0396926 0.0161529 0.0398278
-0.0455819 0.0161996 0.045717
-0.0516175 0.0162476 0.0517526
-0.0578027 0.0162968 0.0579379
-0.0641408 0.0163473 0.0642759
-0.0706351 0.0163991 0.0707702
-0.077289 0.0164522 0.0774241
-0.084106 0.0165067 0.0842411
-0.0910895 0.0165626 0.0912246
-0.0982434 0.0166198 0.0983785
-0.105571 0.0166785 0.105706
-0.113077 0.0167387 0.113212
-0.120763 0.0168004 0.120898
-0.128636 0.0168637 0.128771
-0.136697 0.0169285 0.136832
-0.144952 0.0169949 0.145087
-0.153405 0.0170629 0.15354
-0.162059 0.0171326 0.162194
-0.170919 0.017204 0.171054
-0.179989 0.0172771 0.180124
-0.189274 0.017352 0.189409
-0.198778 0.0174288 0.198913
-0.208506 0.0175073 0.208641
-0.218462 0.0175877 0.218597
-0.228651 0.0176701 0.228786
-0.239077 0.0177544 0.239213
-0.249747 0.0178407 0.249882
-0.260663 0.017929 0.260799
-0.271832 0.0180194 0.271968
-0.283259 0.018112 0.283394
-0.294948 0.0182066 0.295083
-0.306905 0.0183035 0.30704
-0.319135 0.0184027 0.31927
-0.331642 0.0185041 0.331778
-0.344434 0.0186078 0.344569
-0.357514 0.018714 0.357649
-0.370888 0.0188226 0.371023
-0.384561 0.0189336 0.384697
-0.39854 0.0190472 0.398675
-0.412828 0.0191634 0.412964
-0.427432 0.0192822 0.427568
-0.442357 0.0194037 0.442492
-0.00218649 0.0222722 0.0024447
-0.00713611 0.0223268 0.00739431
-0.0122114 0.0223829 0.0124695
-0.017415 0.0224405 0.0176732
-0.0227499 0.0224997 0.0230081
-0.028219 0.0225605 0.0284772
-0.0338252 0.0226228 0.0340834
-0.0395716 0.0226868 0.0398297
-0.0454612 0.0227525 0.0457193
-0.0514972 0.0228199 0.0517553
-0.0576828 0.022889 0.0579409
-0.0640212 0.02296 0.0642794
-0.0705159 0.0230327 0.070774
-0.0771702 0.0231073 0.0774283
-0.0839876 0.0231839 0.0842457
-0.0909716 0.0232623 0.0912297
-0.0981258 0.0233428 0.098384
-0.105454 0.0234253 0.105712
-0.11296 0.0235098 0.113218
-0.120647 0.0235965 0.120905
-0.12852 0.0236853 0.128778
-0.136582 0.0237763 0.13684
-0.144837 0.0238696 0.145096
-0.15329 0.0239652 0.153549
-0.161945 0.0240631 0.162203
-0.170805 0.0241634 0.171064
-0.179876 0.0242661 0.180135
-0.189162 0.0243713 0.18942
-0.198666 0.0244791 0.198925
-0.208394 0.0245894 0.208653
-0.218351 0.0247024 0.218609
-0.22854 0.0248181 0.228799
-0.238968 0.0249365 0.239226
-0.249637 0.0250577 0.249896
-0.260555 0.0251818 0.260813
-0.271724 0.0253088 0.271983
-0.283152 0.0254387 0.28341
-0.294841 0.0255717 0.2951
-0.306799 0.0257078 0.307058
-0.319029 0.0258471 0.319288
-0.331537 0.0259896 0.331797
-0.344329 0.0261353 0.344589
-0.35741 0.0262844 0.35767
-0.370785 0.0264369 0.371045
-0.384459 0.0265929 0.38472
-0.398438 0.0267525 0.398699
-0.412728 0.0269156 0.41299
-0.427333 0.0270825 0.427595
-0.442259 0.0272532 0.442522
-0.00202176 0.0287285 0.00244483
-0.00697167 0.028799 0.00739472
-0.0120472 0.0288714 0.0124703
-0.0172512 0.0289457 0.0176743
-0.0225866 0.0290221 0.0230096
-0.028056 0.0291005 0.0284791
-0.0336627 0.0291809 0.0340857
-0.0394095 0.0292635 0.0398325
-0.0452996 0.0293482 0.0457226
-0.0513361 0.0294352 0.0517591
-0.0575222 0.0295244 0.0579452
-0.0638611 0.0296159 0.0642842
-0.0703563 0.0297097 0.0707794
-0.0770112 0.029806 0.0774342
-0.0838291 0.0299047 0.0842522
-0.0908137 0.030006 0.0912368
-0.0979685 0.0301098 0.0983916
-0.105297 0.0302162 0.10572
-0.112804 0.0303253 0.113227
-0.120492 0.0304371 0.120915
-0.128365 0.0305517 0.128788
-0.136428 0.0306691 0.136851
-0.144684 0.0307894 0.145107
-0.153137 0.0309127 0.153561
-0.161793 0.0310391 0.162216
-0.170654 0.0311684 0.171077
-0.179725 0.031301 0.180149
-0.189011 0.0314367 0.189435
-0.198517 0.0315757 0.19894
-0.208246 0.0317181 0.208669
-0.218203 0.0318638 0.218627
-0.228393 0.0320131 0.228817
-0.238821 0.0321658 0.239245
-0.249492 0.0323222 0.249916
-0.26041 0.0324823 0.260834
-0.27158 0.0326461 0.272005
-0.283008 0.0328138 0.283434
-0.294699 0.0329854 0.295125
-0.306657 0.0331609 0.307083
-0.318888 0.0333406 0.319315
-0.331397 0.0335244 0.331825
-0.34419 0.0337124 0.344619
-0.357271 0.0339047 0.357701
-0.370647 0.0341015 0.371078
-0.384323 0.0343027 0.384754
-0.398303 0.0345086 0.398736
-0.412594 0.0347191 0.413028
-0.4272 0.0349344 0.427635
-0.442128 0.0351546 0.442564
-0.00181435 0.0352266 0.00244502
-0.00676466 0.035313 0.0073953
-0.0118407 0.0354018 0.0124713
-0.0170451 0.035493 0.0176758
-0.022381 0.0355867 0.0230116
-0.027851 0.0356828 0.0284816
-0.0334582 0.0357815 0.0340888
-0.0392056 0.0358828 0.0398362
-0.0450963 0.0359867 0.0457269
-0.0511334 0.0360933 0.051764
-0.0573201 0.0362027 0.0579508
-0.0636597 0.036315 0.0642904
-0.0701556 0.0364301 0.0707863
-0.0768111 0.0365482 0.0774419
-0.0836298 0.0366693 0.0842606
-0.0906151 0.0367934 0.0912459
-0.0977706 0.0369208 0.0984015
-0.1051 0.0370513 0.105731
-0.112607 0.0371851 0.113238
-0.120296 0.0373222 0.120927
-0.12817 0.0374627 0.128801
-0.136234 0.0376068 0.136865
-0.144491 0.0377544 0.145122
-0.152945 0.0379056 0.153576
-0.161601 0.0380605 0.162232
-0.170463 0.0382192 0.171095
-0.179535 0.0383817 0.180167
-0.188822 0.0385482 0.189454
-0.198328 0.0387187 0.19896
-0.208058 0.0388933 0.208691
-0.218016 0.039072 0.218649
-0.228208 0.0392551 0.228841
-0.238637 0.0394424 0.239271
-0.249308 0.0396342 0.249943
-0.260227 0.0398305 0.260863
-0.271399 0.0400315 0.272035
-0.282827 0.0402371 0.283465
-0.294519 0.0404475 0.295158
-0.306478 0.0406629 0.307119
-0.318711 0.0408832 0.319352
-0.331221 0.0411086 0.331864
-0.344015 0.0413392 0.344659
-0.357097 0.0415751 0.357743
-0.370474 0.0418164 0.371121
-0.384151 0.0420632 0.384799
-0.398133 0.0423156 0.398783
-0.412425 0.0425738 0.413076
-0.427033 0.0428378 0.427686
-0.441963 0.0431079 0.442618
-0.00156336 0.0417662 0.00244527
-0.00651419 0.0418688 0.00739607
-0.0115908 0.0419741 0.0124726
-0.0167958 0.0420823 0.0176777
-0.0221323 0.0421934 0.0230141
-0.027603 0.0423074 0.0284848
-0.0332109 0.0424245 0.0340927
-0.038959 0.0425446 0.0398409
-0.0448504 0.0426678 0.0457323
-0.0508883 0.0427943 0.0517702
-0.0570758 0.0429241 0.0579577
-0.0634162 0.0430572 0.0642982
-0.0699129 0.0431937 0.070795
-0.0765693 0.0433338 0.0774514
-0.0833888 0.0434774 0.0842709
-0.090375 0.0436246 0.0912572
-0.0975314 0.0437756 0.0984137
-0.104862 0.0439304 0.105744
-0.11237 0.0440891 0.113252
-0.12006 0.0442517 0.120942
-0.127935 0.0444184 0.128817
-0.135999 0.0445892 0.136882
-0.144257 0.0447643 0.14514
-0.152712 0.0449436 0.153595
-0.161369 0.0451273 0.162253
-0.170233 0.0453155 0.171116
-0.179306 0.0455083 0.18019
-0.188594 0.0457057 0.189479
-0.198101 0.0459079 0.198987
-0.207832 0.046115 0.208719
-0.217791 0.046327 0.218679
-0.227984 0.046544 0.228872
-0.238414 0.0467662 0.239304
-0.249086 0.0469937 0.249978
-0.260007 0.0472265 0.2609
-0.271179 0.0474648 0.272074
-0.282609 0.0477087 0.283505
-0.294302 0.0479582 0.2952
-0.306263 0.0482136 0.307162
-0.318496 0.0484749 0.319397
-0.331008 0.0487422 0.33191
-0.343803 0.0490156 0.344707
-0.356887 0.0492954 0.357793
-0.370266 0.0495815 0.371173
-0.383944 0.0498742 0.384853
-0.397927 0.0501736 0.398838
-0.412221 0.0504798 0.413134
-0.426831 0.0507929 0.427747
-0.441764 0.0511132 0.442682
-0.00126787 0.0483474 0.00244559
-0.00621937 0.0484661 0.00739705
-0.0112966 0.0485881 0.0124743
-0.0165025 0.0487134 0.0176801
-0.0218397 0.0488421 0.0230173
-0.0273112 0.0489741 0.0284888
-0.0329199 0.0491096 0.0340976
-0.0386689 0.0492487 0.0398466
-0.0445612 0.0493915 0.0457389
-0.0506 0.0495379 0.0517777
-0.0567884 0.0496882 0.0579662
-0.0631298 0.0498423 0.0643077
-0.0696275 0.0500004 0.0708054
-0.0762849 0.0501626 0.0774628
-0.0831054 0.0503289 0.0842834
-0.0900926 0.0504994 0.0912708
-0.0972501 0.0506743 0.0984284
-0.104582 0.0508535 0.10576
-0.112091 0.0510373 0.113269
-0.119782 0.0512256 0.12096
-0.127658 0.0514186 0.128837
-0.135723 0.0516164 0.136902
-0.143982 0.0518191 0.145162
-0.152439 0.0520268 0.153619
-0.161097 0.0522395 0.162278
-0.169961 0.0524574 0.171143
-0.179036 0.0526806 0.180219
-0.188325 0.0529093 0.189509
-0.197834 0.0531434 0.199019
-0.207566 0.0533831 0.208753
-0.217527 0.0536286 0.218715
-0.22772 0.0538799 0.22891
-0.238152 0.0541372 0.239343
-0.248826 0.0544006 0.250019
-0.259747 0.0546702 0.260943
-0.270921 0.0549461 0.272118
-0.282353 0.0552285 0.283552
-0.294047 0.0555174 0.295248
-0.306009 0.0558131 0.307212
-0.318244 0.0561156 0.319449
-0.330757 0.0564251 0.331964
-0.343554 0.0567418 0.344763
-0.35664 0.0570657 0.357851
-0.37002 0.057397 0.371233
-0.3837 0.0577359 0.384915
-0.397685 0.0580825 0.398903
-0.411981 0.0584371 0.413201
-0.426594 0.0587996 0.427816
-0.441529 0.0591705 0.442754
-0.000926992 0.0549698 0.00244598
-0.0058793 0.0551049 0.00739825
-0.0109574 0.0552437 0.0124763
-0.0161641 0.0553862 0.017683
-0.0215023 0.0555326 0.0230212
-0.0269747 0.0556828 0.0284936
-0.0325844 0.0558369 0.0341033
-0.0383344 0.0559951 0.0398534
-0.0442277 0.0561575 0.0457467
-0.0502676 0.0563241 0.0517866
-0.0564571 0.056495 0.0579762
-0.0627996 0.0566703 0.0643188
-0.0692984 0.0568502 0.0708177
-0.075957 0.0570347 0.0774763
-0.0827787 0.0572238 0.0842982
-0.0897671 0.0574178 0.0912867
-0.0969258 0.0576167 0.0984456
-0.104259 0.0578205 0.105778
-0.111769 0.0580295 0.113289
-0.119461 0.0582437 0.120981
-0.127339 0.0584633 0.128859
-0.135405 0.0586883 0.136927
-0.143666 0.0589188 0.145188
-0.152124 0.059155 0.153647
-0.160783 0.059397 0.162308
-0.169649 0.0596448 0.171176
-0.178725 0.0598987 0.180253
-0.188016 0.0601587 0.189546
-0.197526 0.060425 0.199058
-0.207259 0.0606977 0.208793
-0.217221 0.0609769 0.218757
-0.227417 0.0612628 0.228954
-0.237849 0.0615554 0.239389
-0.248525 0.0618549 0.250067
-0.259448 0.0621615 0.260992
-0.270624 0.0624754 0.27217
-0.282057 0.0627965 0.283605
-0.293753 0.0631251 0.295303
-0.305717 0.0634614 0.307269
-0.317954 0.0638055 0.319508
-0.330469 0.0641575 0.332026
-0.343267 0.0645176 0.344827
-0.356355 0.064886 0.357917
-0.369737 0.0652628 0.371302
-0.383419 0.0656483 0.384986
-0.397406 0.0660425 0.398976
-0.411704 0.0664457 0.413277
-0.426319 0.066858 0.427895
-0.441257 0.0672797 0.442836
-0.000539809 0.0616335 0.00244645
-0.00549309 0.061785 0.00739968
-0.0105722 0.0619407 0.0124788
-0.01578 0.0621006 0.0176865
-0.0211192 0.0622647 0.0230257
-0.0265927 0.0624332 0.0284992
-0.0322035 0.0626062 0.0341101
-0.0379547 0.0627836 0.0398613
-0.0438492 0.0629658 0.0457559
-0.0498903 0.0631527 0.051797
-0.0560811 0.0633444 0.0579879
-0.0624249 0.0635411 0.0643318
-0.068925 0.0637428 0.070832
-0.0755848 0.0639497 0.077492
-0.0824079 0.0641619 0.0843152
-0.0893977 0.0643795 0.0913051
-0.0965578 0.0646026 0.0984654
-0.103892 0.0648313 0.1058
-0.111404 0.0650657 0.113312
-0.119097 0.065306 0.121006
-0.126976 0.0655523 0.128886
-0.135045 0.0658047 0.136956
-0.143307 0.0660632 0.14522
-0.151766 0.0663282 0.153681
-0.160427 0.0665996 0.162344
-0.169295 0.0668776 0.171213
-0.178372 0.0671624 0.180293
-0.187664 0.0674541 0.189587
-0.197176 0.0677528 0.199101
-0.206911 0.0680586 0.208838
-0.216875 0.0683718 0.218804
-0.227072 0.0686924 0.229003
-0.237507 0.0690206 0.23944
-0.248184 0.0693566 0.25012
-0.259109 0.0697005 0.261047
-0.270287 0.0700525 0.272227
-0.281722 0.0704127 0.283665
-0.29342 0.0707813 0.295366
-0.305385 0.0711585 0.307334
-0.317624 0.0715444 0.319575
-0.330141 0.0719392 0.332095
-0.342942 0.0723432 0.344899
-0.356031 0.0727564 0.357992
-0.369416 0.073179 0.371379
-0.3831 0.0736113 0.385066
-0.397089 0.0740534 0.399059
-0.41139 0.0745056 0.413363
-0.426007 0.0749681 0.427983
-0.440947 0.075441 0.442927
-0.00010541 0.0683381 0.00244701
-0.00505982 0.0685062 0.00740135
-0.0101401 0.0686789 0.0124816
-0.015349 0.0688563 0.0176905
-0.0206895 0.0690384 0.0230309
-0.0261643 0.0692253 0.0285058
-0.0317764 0.0694172 0.0341179
-0.0375289 0.0696141 0.0398705
-0.0434248 0.0698162 0.0457664
-0.0494673 0.0700235 0.0518089
-0.0556595 0.0702362 0.0580012
-0.0620047 0.0704544 0.0643466
-0.0685063 0.0706782 0.0708483
-0.0751676 0.0709078 0.0775098
-0.0819922 0.0711432 0.0843345
-0.0889835 0.0713845 0.0913261
-0.0961452 0.071632 0.098488
-0.103481 0.0718857 0.105824
-0.110994 0.0721458 0.113339
-0.11869 0.0724124 0.121035
-0.12657 0.0726856 0.128918
-0.13464 0.0729655 0.13699
-0.142904 0.0732524 0.145256
-0.151365 0.0735463 0.153719
-0.160028 0.0738473 0.162384
-0.168897 0.0741558 0.171255
-0.177977 0.0744717 0.180337
-0.187271 0.0747952 0.189633
-0.196784 0.0751265 0.199149
-0.206521 0.0754658 0.208889
-0.216487 0.0758132 0.218857
-0.226686 0.0761688 0.229058
-0.237122 0.0765329 0.239498
-0.247802 0.0769056 0.25018
-0.258729 0.0772871 0.26111
-0.269908 0.0776775 0.272292
-0.281346 0.0780771 0.283732
-0.293046 0.078486 0.295435
-0.305014 0.0789043 0.307406
-0.317254 0.0793324 0.31965
-0.329774 0.0797703 0.332173
-0.342577 0.0802184 0.344979
-0.355669 0.0806767 0.358075
-0.369056 0.0811455 0.371465
-0.382742 0.081625 0.385155
-0.396734 0.0821154 0.399151
-0.411038 0.082617 0.413459
-0.425657 0.0831299 0.428084
-0.440599 0.0836545 0.443031
0.000377117 0.0750835 0.00244764
-0.00457859 0.0752683 0.00740328
-0.00966021 0.0754582 0.0124848
-0.0148705 0.0756532 0.0176951
-0.0202123 0.0758534 0.0230369
-0.0256886 0.0760589 0.0285132
-0.0313022 0.0762699 0.0341268
-0.0370562 0.0764864 0.0398809
-0.0429536 0.0767085 0.0457783
-0.0489976 0.0769364 0.0518225
-0.0551914 0.0771703 0.0580164
-0.0615382 0.0774102 0.0643633
-0.0680414 0.0776562 0.0708667
-0.0747044 0.0779086 0.0775299
-0.0815307 0.0781674 0.0843564
-0.0885237 0.0784327 0.0913497
-0.0956872 0.0787048 0.0985138
-0.103025 0.0789837 0.105853
-0.11054 0.0792696 0.11337
-0.118237 0.0795626 0.121069
-0.126119 0.079863 0.128954
-0.134191 0.0801707 0.137028
-0.142457 0.080486 0.145295
-0.15092 0.0808091 0.153761
-0.159585 0.0811401 0.162428
-0.168456 0.0814791 0.171302
-0.177537 0.0818264 0.180386
-0.186834 0.0821821 0.189685
-0.196349 0.0825463 0.199203
-0.206088 0.0829192 0.208945
-0.216056 0.0833011 0.218915
-0.226257 0.083692 0.229119
-0.236696 0.0840922 0.239561
-0.247378 0.0845019 0.250246
-0.258307 0.0849212 0.261178
-0.269489 0.0853504 0.272363
-0.280928 0.0857896 0.283806
-0.292631 0.086239 0.295512
-0.304601 0.0866989 0.307486
-0.316844 0.0871694 0.319733
-0.329366 0.0876508 0.332258
-0.342172 0.0881432 0.345068
-0.355267 0.088647 0.358167
-0.368656 0.0891623 0.371561
-0.382345 0.0896893 0.385256
-0.39634 0.0902284 0.399257
-0.410646 0.0907796 0.413569
-0.425269 0.0913434 0.428199
-0.440214 0.09192 0.443151
0.000908689 0.0818694 0.00244836
-0.0040485 0.0820711 0.00740546
-0.00913162 0.0822783 0.0124885
-0.0143435 0.0824911 0.0177003
-0.0196869 0.0827096 0.0230437
-0.0251647 0.0829338 0.0285216
-0.0307799 0.083164 0.0341368
-0.0365356 0.0834002 0.0398925
-0.0424347 0.0836426 0.0457917
-0.0484804 0.0838913 0.0518376
-0.054676 0.0841464 0.0580333
-0.0610246 0.0844082 0.0643821
-0.0675296 0.0846767 0.0708873
-0.0741945 0.084952 0.0775524
-0.0810226 0.0852344 0.0843808
-0.0880176 0.0855239 0.0913765
-0.0951829 0.0858207 0.0985435
-0.102522 0.086125 0.105885
-0.11004 0.086437 0.113405
-0.117739 0.0867567 0.121106
-0.125623 0.0870844 0.128993
-0.133697 0.0874201 0.137069
-0.141965 0.0877642 0.14534
-0.15043 0.0881166 0.153807
-0.159097 0.0884777 0.162477
-0.16797 0.0888476 0.171353
-0.177054 0.0892265 0.18044
-0.186352 0.0896145 0.189741
-0.19587 0.0900119 0.199262
-0.205612 0.0904187 0.209007
-0.215582 0.0908353 0.21898
-0.225785 0.0912618 0.229187
-0.236227 0.0916984 0.239631
-0.246911 0.0921454 0.250319
-0.257842 0.0926028 0.261254
-0.269027 0.093071 0.272442
-0.280469 0.0935501 0.283888
-0.292174 0.0940404 0.295597
-0.304147 0.094542 0.307574
-0.316393 0.0950553 0.319824
-0.328917 0.0955805 0.332354
-0.341726 0.0961177 0.345168
-0.354824 0.0966672 0.358272
-0.368216 0.0972293 0.371671
-0.381908 0.0978043 0.38537
-0.395906 0.0983923 0.399376
-0.410216 0.0989937 0.413693
-0.424842 0.0996087 0.428327
-0.43979 0.100238 0.443283
0.00149022 0.0886957 0.00244917
-0.00346862 0.0889144 0.0074079
-0.00855342 0.0891391 0.0124926
-0.013767 0.0893698 0.0177062
-0.0191121 0.0896066 0.0230513
-0.0245917 0.0898498 0.0285309
-0.0302088 0.0900993 0.034148
-0.0359663 0.0903554 0.0399056
-0.0418673 0.0906182 0.0458066
-0.0479149 0.0908879 0.0518544
-0.0541124 0.0911645 0.0580521
-0.060463 0.0914483 0.0644028
-0.06697 0.0917394 0.0709101
-0.0736369 0.0920379 0.0775772
-0.0804671 0.092344 0.0844083
-0.0874641 0.0926579 0.0914071
-0.0946316 0.0929797 0.0985769
-0.101973 0.0933096 0.105921
-0.109493 0.0936478 0.113443
-0.117194 0.0939944 0.121147
-0.125081 0.0943496 0.129036
-0.133157 0.0947136 0.137115
-0.141427 0.0950866 0.145388
-0.149894 0.0954687 0.153858
-0.158564 0.0958602 0.162531
-0.167439 0.0962611 0.171409
-0.176525 0.0966718 0.180499
-0.185826 0.0970925 0.189803
-0.195347 0.0975232 0.199327
-0.205091 0.0979642 0.209074
-0.215063 0.0984158 0.21905
-0.225269 0.0988782 0.22926
-0.235713 0.0993514 0.239708
-0.2464 0.0998359 0.250398
-0.257334 0.100332 0.261337
-0.268522 0.100839 0.272528
-0.279966 0.101359 0.283977
-0.291674 0.10189 0.29569
-0.30365 0.102434 0.307671
-0.315899 0.10299 0.319926
-0.328427 0.103559 0.332461
-0.341238 0.104142 0.34528
-0.354339 0.104737 0.358389
-0.367735 0.105347 0.371792
-0.38143 0.10597 0.385496
-0.395432 0.106607 0.399506
-0.409745 0.107259 0.413827
-0.424374 0.107926 0.428466
-0.439326 0.108607 0.443427
0.00212263 0.0955621 0.00245008
-0.00283804 0.0957979 0.00741062
-0.00792471 0.0960402 0.0124972
-0.0131402 0.096289 0.0177126
-0.0184872 0.0965444 0.0230597
-0.0239688 0.0968066 0.0285413
-0.0295878 0.0970757 0.0341603
-0.0353474 0.0973518 0.0399199
-0.0412504 0.0976352 0.0458231
-0.0473001 0.097926 0.051873
-0.0534997 0.0982243 0.0580727
-0.0598525 0.0985303 0.0644257
-0.0663617 0.0988441 0.0709352
-0.0730308 0.099166 0.077605
-0.0798632 0.0994961 0.0844393
-0.0868625 0.0998345 0.0914411
-0.0940323 0.100182 0.0986134
-0.101376 0.100537 0.10596
-0.108898 0.100902 0.113485
-0.116602 0.101276 0.121191
-0.124491 0.101659 0.129083
-0.13257 0.102051 0.137165
-0.140842 0.102453 0.145441
-0.149312 0.102865 0.153914
-0.157984 0.103287 0.162589
-0.166862 0.10372 0.171471
-0.175951 0.104162 0.180563
-0.185255 0.104616 0.18987
-0.194778 0.10508 0.199397
-0.204524 0.105556 0.209148
-0.2145 0.106043 0.219127
-0.224709 0.106541 0.22934
-0.235155 0.107051 0.239791
-0.245845 0.107573 0.250485
-0.256782 0.108108 0.261426
-0.267973 0.108655 0.272622
-0.27942 0.109215 0.284076
-0.291131 0.109788 0.295793
-0.30311 0.110374 0.30778
-0.315363 0.110974 0.32004
-0.327894 0.111588 0.332579
-0.340708 0.112215 0.345403
-0.353813 0.112857 0.358515
-0.367212 0.113514 0.371923
-0.380911 0.114186 0.385632
-0.394916 0.114873 0.399646
-0.409232 0.115576 0.413972
-0.423866 0.116294 0.428615
-0.438822 0.117029 0.443581
0.00280684 0.102468 0.00245107
-0.00215586 0.102721 0.00741362
-0.00724458 0.102982 0.0125022
-0.0124621 0.103249 0.0177197
-0.0178113 0.103523 0.0230689
-0.023295 0.103804 0.0285526
-0.0289162 0.104093 0.0341739
-0.0346779 0.104389 0.0399357
-0.0405832 0.104693 0.0458411
-0.0466352 0.105005 0.0518933
-0.0528371 0.105326 0.0580954
-0.0591922 0.105654 0.0644507
-0.0657038 0.105991 0.0709628
-0.0723753 0.106336 0.077636
-0.0792102 0.10669 0.0844735
-0.086212 0.107054 0.091478
-0.0933843 0.107426 0.0986531
-0.100731 0.107808 0.106003
-0.108255 0.108199 0.11353
-0.115961 0.1086 0.121239
-0.123853 0.109011 0.129134
-0.131935 0.109432 0.137219
-0.14021 0.109864 0.145498
-0.148683 0.110306 0.153974
-0.157357 0.110759 0.162652
-0.166238 0.111223 0.171537
-0.17533 0.111698 0.180633
-0.184636 0.112184 0.189943
-0.194162 0.112683 0.199473
-0.203912 0.113193 0.209227
-0.213891 0.113715 0.21921
-0.224102 0.11425 0.229426
-0.234552 0.114798 0.239881
-0.245245 0.115358 0.250579
-0.256185 0.115932 0.261525
-0.267379 0.116519 0.272726
-0.27883 0.117119 0.284185
-0.290544 0.117734 0.295908
-0.302527 0.118363 0.307899
-0.314782 0.119007 0.320163
-0.327317 0.119665 0.332707
-0.340135 0.120338 0.345535
-0.353243 0.121027 0.358652
-0.366646 0.121732 0.372065
-0.380349 0.122453 0.385778
-0.394358 0.12319 0.399797
-0.408679 0.123944 0.414128
-0.423316 0.124715 0.428777
-0.438277 0.125503 0.443748
0.00354377 0.109414 0.00245216
-0.00142114 0.109685 0.0074169
-0.0065121 0.109963 0.0125078
-0.0117319 0.110248 0.0177275
-0.0170834 0.110541 0.023079
-0.0225694 0.110842 0.028565
-0.028193 0.111151 0.0341887
-0.0339571 0.111467 0.0399529
-0.0398648 0.111792 0.0458607
-0.0459193 0.112126 0.0519154
-0.0521237 0.112468 0.05812
-0.0584813 0.112819 0.0644779
-0.0649955 0.113179 0.0709934
-0.0716696 0.113548 0.0776702
-0.0785071 0.113927 0.0845106
-0.0855115 0.114315 0.091518
-0.0926865 0.114713 0.0986961
-0.100036 0.115121 0.106048
-0.107563 0.115539 0.113579
-0.115272 0.115968 0.121291
-0.123167 0.116407 0.12919
-0.131251 0.116857 0.137278
-0.139529 0.117318 0.145559
-0.148005 0.117791 0.154039
-0.156683 0.118275 0.162721
-0.165567 0.11877 0.171609
-0.174661 0.119278 0.180708
-0.183971 0.119798 0.190022
-0.1935 0.120331 0.199555
-0.203253 0.120876 0.209313
-0.213235 0.121434 0.219299
-0.22345 0.122005 0.229519
-0.233903 0.12259 0.239979
-0.244599 0.123189 0.250682
-0.255543 0.123802 0.261634
-0.26674 0.124429 0.27284
-0.278194 0.125071 0.284304
-0.289912 0.125728 0.296031
-0.301898 0.1264 0.308026
-0.314158 0.127088 0.320295
-0.326696 0.127791 0.332844
-0.339518 0.128511 0.345676
-0.35263 0.129247 0.358798
-0.366037 0.13 0.372216
-0.379744 0.13077 0.385934
-0.393758 0.131558 0.399959
-0.408082 0.132363 0.414295
-0.422725 0.133187 0.428949
-0.43769 0.134029 0.443926
0.00433434 0.116399 0.00245335
-0.000632974 0.116687 0.00742047
-0.00572636 0.116983 0.0125137
-0.0109486 0.117287 0.0177359
-0.0163026 0.117599 0.0230899
-0.0217912 0.11792 0.0285785
-0.0274173 0.118249 0.0342047
-0.033184 0.118586 0.0399715
-0.0390943 0.118932 0.045882
-0.0451515 0.119287 0.0519393
-0.0513585 0.119652 0.0581467
-0.0577189 0.120025 0.0645078
-0.0642358 0.120409 0.0710272
-0.0709127 0.120802 0.0777071
-0.077753 0.121205 0.0845505
-0.0847604 0.121619 0.0915611
-0.0919383 0.122042 0.0987423
-0.0992905 0.122477 0.106098
-0.106821 0.122922 0.113632
-0.114533 0.123378 0.121347
-0.12243 0.123846 0.129249
-0.130518 0.124325 0.13734
-0.138799 0.124816 0.145626
-0.147278 0.125319 0.154109
-0.155959 0.125835 0.162794
-0.164846 0.126363 0.171686
-0.173944 0.126903 0.180788
-0.183257 0.127457 0.190106
-0.192789 0.128024 0.199643
-0.202546 0.128604 0.209405
-0.212531 0.129198 0.219396
-0.22275 0.129807 0.229622
-0.233206 0.13043 0.240086
-0.243906 0.131067 0.250795
-0.254854 0.13172 0.261752
-0.266054 0.132388 0.272962
-0.277513 0.133071 0.284431
-0.289234 0.13377 0.296162
-0.301224 0.134486 0.308163
-0.313488 0.135218 0.320437
-0.32603 0.135967 0.33299
-0.338857 0.136733 0.345827
-0.351973 0.137516 0.358955
-0.365384 0.138318 0.372377
-0.379096 0.139138 0.386101
-0.393113 0.139976 0.400131
-0.407443 0.140834 0.414474
-0.42209 0.14171 0.429134
-0.43706 0.142607 0.44412
0.00517948 0.123423 0.00245463
0.00020956 0.123729 0.00742434
-0.00488646 0.124044 0.0125202
-0.0101114 0.124366 0.0177451
-0.015468 0.124698 0.0231017
-0.0209593 0.125038 0.028593
-0.0265882 0.125387 0.034222
-0.0323577 0.125745 0.0399916
-0.0382709 0.126112 0.045905
-0.0443308 0.126489 0.0519652
-0.0505408 0.126876 0.0581755
-0.0569041 0.127273 0.0645406
-0.0634239 0.12768 0.0710636
-0.0701038 0.128097 0.0777467
-0.0769472 0.128525 0.0845934
-0.0839576 0.128964 0.0916073
-0.0911386 0.129414 0.0987919
-0.0984939 0.129875 0.106151
-0.106027 0.130347 0.113688
-0.113743 0.130832 0.121407
-0.121644 0.131328 0.129313
-0.129734 0.131837 0.137408
-0.138019 0.132358 0.145697
-0.146501 0.132892 0.154183
-0.155186 0.133439 0.162873
-0.164076 0.133999 0.171768
-0.173178 0.134573 0.180875
-0.182494 0.13516 0.190196
-0.19203 0.135762 0.199738
-0.20179 0.136378 0.209504
-0.211779 0.137009 0.219501
-0.222002 0.137654 0.229733
-0.232462 0.138315 0.240203
-0.243166 0.138992 0.250916
-0.254117 0.139684 0.261878
-0.265322 0.140393 0.273093
-0.276784 0.141118 0.284566
-0.28851 0.14186 0.296303
-0.300504 0.142619 0.308308
-0.312772 0.143396 0.320587
-0.325319 0.144191 0.333145
-0.338149 0.145004 0.345988
-0.35127 0.145835 0.359121
-0.364686 0.146686 0.372549
-0.378402 0.147556 0.386279
-0.392425 0.148445 0.400316
-0.406759 0.149355 0.414667
-0.421411 0.150286 0.429336
-0.436387 0.151237 0.444329
0.0060801 0.130486 0.00245601
0.00110738 0.13081 0.00742849
-0.00399145 0.131143 0.0125272
-0.00921923 0.131484 0.0177549
-0.0145788 0.131835 0.0231144
-0.020073 0.132195 0.0286087
-0.0257048 0.132564 0.0342406
-0.0314773 0.132943 0.0400132
-0.0373934 0.133332 0.0459296
-0.0434565 0.133732 0.0519929
-0.0496695 0.134141 0.0582068
-0.0560359 0.134561 0.0645761
-0.062559 0.134992 0.0711025
-0.0692421 0.135433 0.0777891
-0.0760887 0.135886 0.0846393
-0.0831023 0.136351 0.0916567
-0.0902867 0.136827 0.098845
-0.0976454 0.137315 0.106208
-0.105182 0.137815 0.113749
-0.112901 0.138328 0.121472
-0.120805 0.138853 0.129381
-0.1289 0.139391 0.137479
-0.137188 0.139943 0.145772
-0.145674 0.140508 0.154263
-0.154362 0.141087 0.162956
-0.163256 0.141679 0.171856
-0.172361 0.142287 0.180967
-0.181682 0.142908 0.190293
-0.191221 0.143545 0.19984
-0.200986 0.144197 0.209613
-0.210978 0.144864 0.219615
-0.221205 0.145548 0.229852
-0.231669 0.146247 0.240327
-0.242377 0.146963 0.251045
-0.253333 0.147696 0.262012
-0.264541 0.148445 0.273231
-0.276008 0.149213 0.28471
-0.287738 0.149998 0.296452
-0.299737 0.150801 0.308462
-0.312009 0.151623 0.320747
-0.32456 0.152464 0.333311
-0.337396 0.153324 0.346159
-0.350521 0.154204 0.359298
-0.363942 0.155104 0.372733
-0.377663 0.156024 0.386471
-0.391691 0.156965 0.400517
-0.406031 0.157928 0.414875
-0.420688 0.158912 0.429553
-0.435669 0.159919 0.444554
0.00703712 0.137587 0.00245749
0.00206142 0.137929 0.00743295
-0.00304043 0.138281 0.0125347
-0.00827126 0.138641 0.0177654
-0.0136339 0.139011 0.023128
-0.0191312 0.139392 0.0286254
-0.0247662 0.139782 0.0342605
-0.0305418 0.140182 0.0400363
-0.0364612 0.140593 0.045956